LAMMPS data file via write_data, version 5 Oct 2015, timestep = 44000

14048 atoms
58 atom types
11360 bonds
54 bond types
9680 angles
55 angle types
5536 dihedrals
43 dihedral types
336 impropers
3 improper types

-2.5850098325735171e+01 2.5850098325735171e+01 xlo xhi
-2.8300540664590159e+01 2.8300540664590159e+01 ylo yhi
-3.8558440512785580e+01 3.8558440512785580e+01 zlo zhi

Masses

1 15.9994
2 15.9994
3 15.9994
4 15.9994
5 15.9994
6 14.0067
7 14.0067
8 14.0067
9 14.0067
10 14.0067
11 14.0067
12 12.011
13 12.011
14 13.019
15 14.027
16 15.035
17 16.043
18 14.027
19 13.019
20 1.008
21 1.008
22 999
23 32.06
24 63.546
25 63.546
26 55.847
27 65.37
28 24.305
29 40.08
30 30.9738
31 39.948
32 18.9984
33 35.453
34 79.904
35 15.035
36 15.9994
37 22.9898
38 35.453
39 12.011
40 35.453
41 1.008
42 32.06
43 15.035
44 15.9994
45 12.011
46 35.453
47 18.9984
48 12.011
49 14.027
50 15.9994
51 12.011
52 15.9994
53 14.0067
54 28.08
55 999
56 999
57 15.994
58 1.008

Pair Coeffs # lj/cut/coul/long/gpu

1 0.30699 2.7601
2 0.41401 2.6259
3 0.25371 2.8492
4 0.25371 2.8492
5 0.15604 3.1656
6 0.15355 3.1365
7 0.15355 3.1365
8 0.15355 3.1365
9 0.15355 3.1365
10 0.15355 3.1365
11 0.15355 3.1365
12 0.066577 3.5812
13 0.0016789 6.6395
14 0.022773 5.0192
15 0.09853 4.0704
16 0.20812 3.7479
17 0.30682 3.7028
18 0.11503 3.9547
19 0.14617 3.6818
20 0.028411 2.3734
21 0 0
22 0 0
23 0.039532 2.309
24 0 0
25 0 1
26 0 0
27 0 0
28 0 0
29 0 0
30 0.58722 3.3856
31 0 0
32 0 0
33 0 0
34 0 0
35 0 0
36 0 0
37 0 0
38 0 0
39 0 0
40 0 0
41 0 0
42 0 0
43 0 0
44 0 0
45 0 0
46 0 0
47 0 0
48 0 0
49 0 0
50 0 0
51 0 0
52 0 0
53 0 0
54 0 0
55 0 0
56 0 0
57 0.15543 3.1655
58 0 0

Bond Coeffs # harmonic

1 375.23 1
2 446.93 1
3 349.266 1.09
4 1109.27 1.12
5 600.228 1.23
6 500.406 1.25
7 499.72 1.32
8 374.994 1.33
9 448.133 1.33
10 498.865 1.33
11 450.606 1.34
12 502.104 1.34
13 450.896 1.36
14 500.667 1.38
15 399.894 1.39
16 498.714 1.39
17 400.048 1.4
18 399.782 1.43
19 450.121 1.43
20 300.214 1.435
21 449.832 1.47
22 299.969 1.48
23 399.958 1.48
24 450.215 1.48
25 450.097 1.5
26 299.837 1.52
27 400.025 1.53
28 299.844 1.61
29 299.72 1.63
30 205.971 1.78
31 449.805 1.78
32 449.818 1.83
33 300.038 1.87
34 59.9664 1.98
35 60.0368 2
36 500.295 2.04
37 63.0342 2.21
38 554.48 1
39 349.92 1.1
40 599.78 1.758
41 449.818 1.53
42 444.33 1.938
43 599.664 1.76
44 501.014 1.265
45 448.645 1.35
46 555.115 1.633
47 350.241 2.3384
48 600.147 2.9028
49 445.873 2.7939
50 443.805 2.9119
51 409.318 2.077
52 600.159 2.8741
53 527.1 1
54 629.318 0.94

Improper Coeffs # harmonic

1 20.0071 0
2 40.0141 35.2644
3 80.0282 0

Atoms # full

10705 1574 58 4.0999999999999998e-01 -2.3145509909980959e+01 -2.0473526567055583e+01 -3.0598137255587215e+01 8 -3 0
12037 2018 58 4.0999999999999998e-01 -2.1017976825365501e+01 -2.3285565648538810e+01 -3.1608611226509396e+01 0 -2 0
12036 2018 57 -8.1999999999999995e-01 -2.0886688685851365e+01 -2.4249079451583562e+01 -3.1375364329873271e+01 0 -2 0
12038 2018 58 4.0999999999999998e-01 -2.0062240309522167e+01 -2.4348307457016951e+01 -3.0818197424135569e+01 0 -2 0
7985 667 58 4.0999999999999998e-01 -1.9309095988824737e+01 -2.7666607680806923e+01 -3.5966675151052002e+01 -5 0 1
7983 667 57 -8.1999999999999995e-01 -1.8513504309248205e+01 -2.7323819678492377e+01 -3.5467147559208364e+01 -5 0 1
12285 2101 57 -8.1999999999999995e-01 -1.8434868737090774e+01 -2.3801125209203651e+01 -3.0172631410245803e+01 -4 5 0
12286 2101 58 4.0999999999999998e-01 -1.8137787866715747e+01 -2.2945223470849214e+01 -3.0595919749117122e+01 -4 5 0
13633 2550 58 4.0999999999999998e-01 -2.0845115525868856e+01 -2.6701137540028753e+01 -3.3618652594311470e+01 3 -1 0
13632 2550 57 -8.1999999999999995e-01 -2.0858132254058628e+01 -2.5705932420494037e+01 -3.3715592999051566e+01 3 -1 0
7775 597 58 4.0999999999999998e-01 -2.3774700783800810e+01 -2.4852758552503886e+01 -3.0066193547703982e+01 15 0 1
11564 1860 58 4.0999999999999998e-01 -1.4307794032608530e+01 -2.5163945712317982e+01 -3.6682138133995728e+01 -4 -5 0
7773 597 57 -8.1999999999999995e-01 -2.3545076497672135e+01 -2.4749624834323381e+01 -3.1033987313716519e+01 15 0 1
9613 1210 58 4.0999999999999998e-01 -1.5718918317157422e+01 -2.1726550210551999e+01 -3.0760566191855787e+01 11 1 1
11204 1740 58 4.0999999999999998e-01 -2.0058887659980250e+01 -2.0682003656615791e+01 -3.2465048658840296e+01 8 7 0
11202 1740 57 -8.1999999999999995e-01 -2.0632525099967271e+01 -2.1350963521153862e+01 -3.1992363261311304e+01 8 7 0
6761 259 58 4.0999999999999998e-01 -1.7181377582455678e+01 -2.1901950609782638e+01 -3.2183872456600874e+01 -2 2 1
7774 597 58 4.0999999999999998e-01 -2.2553890466123491e+01 -2.4663366817076110e+01 -3.1134534777879878e+01 15 0 1
9612 1210 57 -8.1999999999999995e-01 -1.4892339765600182e+01 -2.2142852950188942e+01 -3.0381806935540343e+01 11 1 1
6597 205 57 -8.1999999999999995e-01 -1.9005887841925567e+01 -2.8117357147090804e+01 -3.1072465517126293e+01 -7 4 1
6879 299 57 -8.1999999999999995e-01 -2.5494658253522601e+01 -2.2133566761848662e+01 -2.7506068608818254e+01 -1 -5 1
6599 205 58 4.0999999999999998e-01 -1.8535859911479228e+01 -2.7334942216881913e+01 -3.1480999566014191e+01 -7 4 1
11203 1740 58 4.0999999999999998e-01 -2.1360146453028705e+01 -2.0876168446912402e+01 -3.1497253029535102e+01 8 7 0
10480 1499 58 4.0999999999999998e-01 -1.6485673571869821e+01 -2.6656886670241114e+01 -3.8534710014417897e+01 3 -5 0
6006 112 15 4.0000000000000002e-01 -2.5461765158623255e+01 -2.4644685166358581e+01 -2.1277864542975639e+01 0 0 0
10479 1499 57 -8.1999999999999995e-01 -1.7444360374099425e+01 -2.6554714318129125e+01 -3.8269229623467076e+01 3 -5 0
10481 1499 58 4.0999999999999998e-01 -1.7559888052925906e+01 -2.6842161991057498e+01 -3.7318431858834785e+01 3 -5 0
11308 1775 58 4.0999999999999998e-01 -2.4088961372387097e+01 -2.5457466223389147e+01 -3.2740087497857594e+01 3 -6 0
6759 259 57 -8.1999999999999995e-01 -1.7497875205571511e+01 -2.1409594724088869e+01 -3.1373065722259575e+01 -2 2 1
7885 634 58 4.0999999999999998e-01 -1.6217640247755671e+01 -1.9813930943754627e+01 -3.5194507901964350e+01 -9 6 1
7884 634 57 -8.1999999999999995e-01 -1.5953607166797768e+01 -1.9782029426950874e+01 -3.4230527822178765e+01 -9 6 1
8168 728 58 4.0999999999999998e-01 -2.2031676057601434e+01 -2.5063102866275848e+01 -3.4985120333243792e+01 -5 0 1
7984 667 58 4.0999999999999998e-01 -1.8803598871764837e+01 -2.6975884772008648e+01 -3.4575644981244686e+01 -5 0 1
8955 991 57 -8.1999999999999995e-01 -1.5493015341853742e+01 -2.5977850281457371e+01 -3.5814695076844671e+01 -3 8 1
8956 991 58 4.0999999999999998e-01 -1.6403456642181595e+01 -2.6297143343582093e+01 -3.5551735200234504e+01 -3 8 1
8957 991 58 4.0999999999999998e-01 -1.4909972241760595e+01 -2.5927101384914675e+01 -3.5003844874042358e+01 -3 8 1
11026 1681 58 4.0999999999999998e-01 -1.6480888355618930e+01 -2.1528469555252254e+01 -3.4415931047695445e+01 4 3 0
7886 634 58 4.0999999999999998e-01 -1.5126251196912524e+01 -1.9229577300675604e+01 -3.4129143834576467e+01 -9 6 1
13109 2375 58 4.0999999999999998e-01 -2.4070660764184417e+01 -2.2767193922591893e+01 -3.1335709334893011e+01 4 3 0
8166 728 57 -8.1999999999999995e-01 -2.2532268454132058e+01 -2.4918801640604549e+01 -3.5838687264143836e+01 -5 0 1
8167 728 58 4.0999999999999998e-01 -2.3497370976460278e+01 -2.5141841164393810e+01 -3.5701462605408913e+01 -5 0 1
13107 2375 57 -8.1999999999999995e-01 -2.4215469903372270e+01 -2.1816619780023686e+01 -3.1061047801215949e+01 4 3 0
11025 1681 57 -8.1999999999999995e-01 -1.6993715578629139e+01 -2.2352174349215023e+01 -3.4174024821200639e+01 4 3 0
11027 1681 58 4.0999999999999998e-01 -1.6428734215696604e+01 -2.3159376553058273e+01 -3.4344964603758271e+01 4 3 0
12743 2253 58 4.0999999999999998e-01 -1.7833787546388372e+01 -2.5154862832298086e+01 -3.1680507282841500e+01 0 2 0
11562 1860 57 -8.1999999999999995e-01 -1.3916480900893962e+01 -2.4486441309806004e+01 -3.7304920971618110e+01 -4 -5 0
12741 2253 57 -8.1999999999999995e-01 -1.7737570148582790e+01 -2.5962285523201775e+01 -3.2262578636905687e+01 0 2 0
10704 1574 57 -8.1999999999999995e-01 -2.2415446790606577e+01 -1.9809777822161994e+01 -3.0435517648095768e+01 8 -3 0
10706 1574 58 4.0999999999999998e-01 -2.2548421456596348e+01 -1.9015396387223252e+01 -3.1028199425068888e+01 8 -3 0
13634 2550 58 4.0999999999999998e-01 -2.0890189967330077e+01 -2.5282736862676533e+01 -3.2810126738152569e+01 3 -1 0
9905 1307 58 4.0999999999999998e-01 -2.1194802517631242e+01 -1.8659908187585454e+01 -2.9677962609674147e+01 -5 0 1
8874 964 57 -8.1999999999999995e-01 -2.2941969745977321e+01 -1.8510915737226675e+01 -3.5811829832520928e+01 2 -1 1
8875 964 58 4.0999999999999998e-01 -2.3494427911098786e+01 -1.9272545274798478e+01 -3.6150518749290960e+01 2 -1 1
13236 2418 57 -8.1999999999999995e-01 -1.3219055091730425e-01 -1.1908619846654439e+01 -2.7841396138358576e+01 1 3 0
13819 2612 58 4.0999999999999998e-01 -1.4157890257485100e+01 -2.4030209391971546e+01 -2.9572904585179284e+01 15 -2 0
14018 2678 58 4.0999999999999998e-01 -1.3670709519394247e+01 -1.8930331629934372e+01 -3.8309671995881303e+01 1 6 0
11563 1860 58 4.0999999999999998e-01 -1.3242845448635983e+01 -2.3932785861951281e+01 -3.6815350887712434e+01 -4 -5 0
6760 259 58 4.0999999999999998e-01 -1.8126444017906401e+01 -2.0682216020842997e+01 -3.1648422028929769e+01 -2 2 1
10240 1419 58 4.0999999999999998e-01 -2.0201773399719546e+01 -2.4085980316498048e+01 -3.4441379384971697e+01 -2 -2 0
13583 2533 58 4.0999999999999998e-01 -1.6439534849858763e+01 -1.7647901512017867e+01 -3.2609280978460212e+01 -5 -4 0
9326 1114 58 4.0999999999999998e-01 -1.9403762024610636e+01 -1.9132882162906935e+01 -3.4018224329158919e+01 -3 2 1
9324 1114 57 -8.1999999999999995e-01 -1.9005104648487780e+01 -1.9605646488508789e+01 -3.3232374777574400e+01 -3 2 1
6983 333 58 4.0999999999999998e-01 -2.1147693143722716e+01 -2.1896398851427996e+01 -3.4685553868948894e+01 -2 -5 1
6981 333 57 -8.1999999999999995e-01 -2.2053434521808544e+01 -2.1643375858909135e+01 -3.5025570711121070e+01 -2 -5 1
8891 969 58 4.0999999999999998e-01 -2.4277093750125545e+01 -2.0089011744893170e-01 -2.8505397076236729e+01 -1 2 1
12742 2253 58 4.0999999999999998e-01 -1.6767197197555578e+01 -2.6161170788535621e+01 -3.2399769610785071e+01 0 2 0
13614 2544 57 -8.1999999999999995e-01 -1.6315596184321304e+01 -2.0153452398293730e+01 -3.6741969715225565e+01 -7 -6 0
9325 1114 58 4.0999999999999998e-01 -1.8053214350381250e+01 -1.9839069214231770e+01 -3.3430916237891694e+01 -3 2 1
10239 1419 57 -8.1999999999999995e-01 -1.9841911272410272e+01 -2.3155237709904533e+01 -3.4506322830636776e+01 -2 -2 0
10246 1421 58 4.0999999999999998e-01 -2.3607951409177968e+01 -2.1734627869766264e+01 -3.6408875125290628e+01 -10 4 0
6982 333 58 4.0999999999999998e-01 -2.2442722619937612e+01 -2.0931730660590276e+01 -3.4440752794482073e+01 -2 -5 1
3680 69 30 1.7000000000000000e+00 -2.5549692945977135e+01 -1.7718573166865106e+01 -2.4050133824542264e+01 0 0 0
12039 2019 57 -8.1999999999999995e-01 -1.8496492231454017e+01 -1.9188389882496747e+01 -3.8348005552505434e+01 -2 1 0
13616 2544 58 4.0999999999999998e-01 -1.6161741703006037e+01 -2.1113274460294956e+01 -3.6976640224001834e+01 -7 -6 0
10274 1430 58 4.0999999999999998e-01 -4.1317720544853032e-01 -2.0387369219343018e+01 -2.4985056640996696e+01 -1 1 0
13615 2544 58 4.0999999999999998e-01 -1.6792271878262614e+01 -1.9698215247138478e+01 -3.7493988984264845e+01 -7 -6 0
10241 1419 58 4.0999999999999998e-01 -1.8844676610674291e+01 -2.3177208804882209e+01 -3.4435327165186067e+01 -2 -2 0
4817 90 3 -6.9999999999999996e-01 -1.4872885458498730e+00 -2.7937684826243178e+01 -2.1128186198993813e+01 0 0 0
11309 1775 58 4.0999999999999998e-01 -2.5158636742880130e+01 -2.6613064639067783e+01 -3.3173675643765741e+01 3 -6 0
10245 1421 57 -8.1999999999999995e-01 -2.4531894947694148e+01 -2.1368537694728698e+01 -3.6519810798222458e+01 -10 4 0
11307 1775 57 -8.1999999999999995e-01 -2.4218934329589199e+01 -2.6288378804238569e+01 -3.3281094166428296e+01 3 -6 0
6468 162 57 -8.1999999999999995e-01 -1.8137461593195336e+01 -3.8678730999109234e-02 -3.8223550139772208e+01 1 3 1
10762 1593 58 4.0999999999999998e-01 -3.1479521274315410e+00 -2.6848928651175566e+01 -2.7970164414347213e+01 6 7 0
10612 1543 58 4.0999999999999998e-01 -1.4866805050970008e+01 -2.3185323442351400e+01 -3.7929703443740351e+01 2 -2 0
9856 1291 58 4.0999999999999998e-01 -1.6300595866248457e-01 -2.7611765145844917e+01 -2.7720833041611790e+01 3 6 1
7584 534 57 -8.1999999999999995e-01 -1.5623747605866120e+01 -2.7469707062365043e+01 -3.2929053270366552e+01 4 4 1
9733 1250 58 4.0999999999999998e-01 -4.3582622784530400e-02 -1.1065915257015963e+01 -2.9370945095576491e+01 -5 4 1
13621 2546 58 4.0999999999999998e-01 -4.8543840703222543e+00 -1.9188776888456196e+01 -3.7221906782101371e+01 10 1 0
12055 2024 58 4.0999999999999998e-01 -1.8053109844242954e-01 -2.2178237392794671e+01 -2.9312160874510916e+01 2 7 0
3349 63 16 4.0000000000000002e-01 -2.4339377284008879e+01 -2.7899465109058053e+01 -2.7969178257217063e+01 0 1 0
12350 2122 58 4.0999999999999998e-01 -7.1474195602438151e+00 -8.4683187267955269e+00 -2.1075759137619240e+01 -3 1 0
8816 944 58 4.0999999999999998e-01 -2.0837039388783882e+01 -2.1122650050719336e+01 -3.7762392919300439e+01 -7 0 1
13978 2665 58 4.0999999999999998e-01 -8.2350840719128122e+00 -2.8054334747920151e+01 -2.5380543470987142e+01 3 1 0
6598 205 58 4.0999999999999998e-01 -1.9649536360295226e+01 -2.7794914698980424e+01 -3.0378388845986393e+01 -7 4 1
10611 1543 57 -8.1999999999999995e-01 -1.5405439200796252e+01 -2.2401122999123899e+01 -3.8237764703425142e+01 2 -2 0
10406 1474 58 4.0999999999999998e-01 -6.7110463322107030e+00 -2.8079391583008199e+01 -2.9254459347825470e+01 -2 7 0
13984 2667 58 4.0999999999999998e-01 -8.1767274503231491e-01 -1.7777858673725632e+01 -3.6518211245390447e+01 0 -10 0
11955 1991 57 -8.1999999999999995e-01 -3.4684799017593164e+00 -8.3157617956761101e+00 -2.6213733773654592e+01 2 4 0
12362 2126 58 4.0999999999999998e-01 -2.5790688666313709e+01 -1.8657829967164485e+01 -3.6628174126324936e+01 -4 6 0
8814 944 57 -8.1999999999999995e-01 -2.0085174042190182e+01 -2.1141240093720320e+01 -3.7103342129400716e+01 -7 0 1
11668 1895 58 4.0999999999999998e-01 -5.2859364960421864e+00 -3.8129305815667323e+00 -2.7530659000472333e+01 5 0 0
10138 1385 58 4.0999999999999998e-01 -1.1044860034931501e+01 -2.6423451086835545e+01 -3.5791020904353410e+01 2 -3 1
7078 365 58 4.0999999999999998e-01 -1.9778085740110328e+01 -2.5455614316720439e+01 -3.7616354486179397e+01 -2 -7 1
11104 1707 58 4.0999999999999998e-01 -2.5796736571978748e+01 -2.1182457814059106e+00 -3.8210989196142513e+01 1 6 0
7585 534 58 4.0999999999999998e-01 -1.4774152079921368e+01 -2.6969306870215359e+01 -3.3095750658506859e+01 4 4 1
10855 1624 58 4.0999999999999998e-01 -2.2800032819411282e+01 -2.5768210022692021e+01 -3.7523813634973500e+01 11 8 0
7641 553 57 -8.1999999999999995e-01 -2.5053500202607989e+01 -2.0189527481231273e+01 -3.4040751270805714e+01 -8 2 1
13985 2667 58 4.0999999999999998e-01 -8.8308078158102532e-01 -1.8478794578748268e+01 -3.7991981381262171e+01 0 -10 0
9569 1195 58 4.0999999999999998e-01 -1.5144886979513384e+01 -2.8258946695374473e+01 -3.1261403221028250e+01 -12 6 1
12072 2030 57 -8.1999999999999995e-01 -1.8715076397304600e+00 -7.4405181161127913e+00 -3.7703710120806612e+01 5 9 0
9857 1291 58 4.0999999999999998e-01 -1.5209012722202431e-02 -2.7408481782646216e+01 -2.6107013302500452e+01 3 6 1
9614 1210 58 4.0999999999999998e-01 -1.4474384559617524e+01 -2.1516309805078091e+01 -2.9723968049172022e+01 11 1 1
4281 80 12 6.9999999999999996e-01 -1.1680262866124265e+01 -5.7246562586081247e+00 -2.1973974976463055e+01 0 0 0
12058 2025 58 4.0999999999999998e-01 -1.3366723962816131e+01 -1.8684712133606801e+01 -3.5038951853227992e+01 -8 0 0
7088 368 58 4.0999999999999998e-01 -1.2395590938483572e+01 -2.0930766618771361e+01 -3.2542483557612101e+01 -1 5 1
7089 369 57 -8.1999999999999995e-01 -1.3489395815772594e+01 -2.6036561224125883e+01 -3.3863504602370540e+01 11 11 1
6605 207 58 4.0999999999999998e-01 -3.3329645993380161e+00 -2.0923108308155005e+01 -3.4144767827485381e+01 2 4 1
12325 2114 58 4.0999999999999998e-01 -2.5528360036399604e+00 -2.7869337062831701e+01 -3.7693773647244861e+01 -4 -2 0
13735 2584 58 4.0999999999999998e-01 -2.7364962663920522e-01 -1.0415690240062759e+01 -3.6928659763516720e+01 -8 3 0
7090 369 58 4.0999999999999998e-01 -1.2653375946127154e+01 -2.6581937360136969e+01 -3.3923801150193448e+01 11 11 1
12666 2228 57 -8.1999999999999995e-01 -1.1449672964054017e+01 -2.3365922198789114e+01 -3.6683444200899423e+01 9 -8 0
12668 2228 58 4.0999999999999998e-01 -1.0581648683329206e+01 -2.3456759846322161e+01 -3.6195305358822090e+01 9 -8 0
4815 90 2 -8.0000000000000004e-01 -3.6222105763413576e-01 -2.6290751396838964e+01 -2.2634571513218891e+01 0 0 0
9950 1322 58 4.0999999999999998e-01 -8.0609044348040264e+00 -2.6677354239831079e+01 -3.6499996627857797e+01 6 -1 1
8801 939 58 4.0999999999999998e-01 -1.1637284176486618e+01 -2.0199715422678718e+01 -3.5525522001443804e+01 2 -7 1
7091 369 58 4.0999999999999998e-01 -1.3295044104605333e+01 -2.5179277712497157e+01 -3.3386755542509178e+01 11 11 1
8401 806 58 4.0999999999999998e-01 -5.1380044153126292e+00 -2.7607157860979761e+01 -3.3666661743301781e+01 1 -4 1
12870 2296 57 -8.1999999999999995e-01 -1.0520694111355766e-01 -1.8155712624643829e+01 -3.3010793003395044e+01 0 2 0
11327 1781 58 4.0999999999999998e-01 -8.1949822991355852e+00 -2.0782353168278750e+01 -3.1573398470655846e+01 -1 -2 0
11326 1781 58 4.0999999999999998e-01 -6.9634651386765114e+00 -2.1589346503199348e+01 -3.0866479417306163e+01 -1 -2 0
11325 1781 57 -8.1999999999999995e-01 -7.2992978366223404e+00 -2.1200607790247560e+01 -3.1724436049562648e+01 -1 -2 0
7086 368 57 -8.1999999999999995e-01 -1.3286356039307632e+01 -2.0480897440017383e+01 -3.2606945448022529e+01 -1 5 1
7087 368 58 4.0999999999999998e-01 -1.3947893226530667e+01 -2.0966937184659383e+01 -3.2035867521994710e+01 -1 5 1
7476 498 57 -8.1999999999999995e-01 -1.0056458800256538e+01 -2.0819866668931162e+01 -3.4167300960848458e+01 -3 3 1
7477 498 58 4.0999999999999998e-01 -1.0070244815187221e+01 -2.1179096885851560e+01 -3.3234159237691038e+01 -3 3 1
6897 305 57 -8.1999999999999995e-01 -4.8725908855533646e+00 -2.4597536314831316e+01 -3.5642820510762064e+01 -7 -5 1
6746 254 58 4.0999999999999998e-01 -9.4693308431006713e+00 -2.2851061188631572e+01 -3.1045500612019801e+01 5 6 1
6745 254 58 4.0999999999999998e-01 -8.8058147345594691e+00 -2.3917433030574145e+01 -3.2089626207028843e+01 5 6 1
7826 614 58 4.0999999999999998e-01 -3.9661713013321922e+00 -2.5568587936773120e+01 -3.2529583323472345e+01 6 -1 1
7825 614 58 4.0999999999999998e-01 -3.8881241111730809e+00 -2.4263055866420451e+01 -3.1551270083128966e+01 6 -1 1
9841 1286 58 4.0999999999999998e-01 -1.1527857603095773e+01 -2.4127144519063201e+01 -3.2143212643446510e+01 -4 7 1
7434 484 57 -8.1999999999999995e-01 -6.4725330436571014e+00 -2.1495737717200353e+01 -2.9207306461430115e+01 -8 0 1
7436 484 58 4.0999999999999998e-01 -5.4736587741438036e+00 -2.1543053888929816e+01 -2.9203914384186152e+01 -8 0 1
9310 1109 58 4.0999999999999998e-01 -1.0094681577101463e+01 -2.6923280925948390e+01 -3.3134488852802271e+01 0 2 1
9920 1312 58 4.0999999999999998e-01 -8.5167075985427694e+00 -2.3775993641595836e+01 -3.5448430045722496e+01 -3 -4 1
9918 1312 57 -8.1999999999999995e-01 -9.4169211999532045e+00 -2.3483424783569284e+01 -3.5125911320433246e+01 -3 -4 1
9919 1312 58 4.0999999999999998e-01 -9.4160515587027938e+00 -2.3441189752338701e+01 -3.4126809888611326e+01 -3 -4 1
13165 2394 58 4.0999999999999998e-01 -6.9559590366861563e+00 -2.1599697601214348e+01 -3.4961806033333325e+01 -4 0 0
13166 2394 58 4.0999999999999998e-01 -7.2597426901149902e+00 -2.2098211263844227e+01 -3.3436425625389916e+01 -4 0 0
7478 498 58 4.0999999999999998e-01 -9.6386530981471168e+00 -2.1492668375671713e+01 -3.4777851690607591e+01 -3 3 1
11272 1763 58 4.0999999999999998e-01 -6.4610203067678391e+00 -2.5198228736198001e+01 -3.2355331428129475e+01 0 0 0
11271 1763 57 -8.1999999999999995e-01 -7.4432171135818770e+00 -2.5207238474589019e+01 -3.2542969231558047e+01 0 0 0
11273 1763 58 4.0999999999999998e-01 -7.7909654255829999e+00 -2.6140861872880023e+01 -3.2456833998290513e+01 0 0 0
7824 614 57 -8.1999999999999995e-01 -3.5318640242264117e+00 -2.5182882191282733e+01 -3.1715580716631692e+01 6 -1 1
6744 254 57 -8.1999999999999995e-01 -9.5377678977922002e+00 -2.3248403473797580e+01 -3.1960610275802210e+01 5 6 1
7933 650 58 4.0999999999999998e-01 -4.2119778290544758e+00 -2.1872431345517416e+01 -3.0590046590562906e+01 0 -1 1
7932 650 57 -8.1999999999999995e-01 -3.8063035599438244e+00 -2.1268309534133380e+01 -2.9904145234714981e+01 0 -1 1
7934 650 58 4.0999999999999998e-01 -2.9326441267064318e+00 -2.1647936186803481e+01 -2.9599839590631490e+01 0 -1 1
9842 1286 58 4.0999999999999998e-01 -1.2781840848259213e+01 -2.4156237870665066e+01 -3.1097134108901365e+01 -4 7 1
7832 616 58 4.0999999999999998e-01 -3.9652107146597437e+00 -2.2738412153087054e+01 -3.2574173316705483e+01 1 7 1
6898 305 58 4.0999999999999998e-01 -4.8162027595072026e+00 -2.5423872795396470e+01 -3.5082476622018284e+01 -7 -5 1
9840 1286 57 -8.1999999999999995e-01 -1.2524520540441431e+01 -2.4144164600901913e+01 -3.2063379029274941e+01 -4 7 1
7831 616 58 4.0999999999999998e-01 -5.5877194876793972e+00 -2.2613150835558887e+01 -3.2434930788440127e+01 1 7 1
7830 616 57 -8.1999999999999995e-01 -4.7455293886365588e+00 -2.2875867366885984e+01 -3.1964087010754554e+01 1 7 1
12326 2114 58 4.0999999999999998e-01 -2.2791382268848537e+00 -2.6647967121990082e+01 -3.6644514114232919e+01 -4 -2 0
12324 2114 57 -8.1999999999999995e-01 -2.5775214298762279e+00 -2.6877206837481989e+01 -3.7571016780126762e+01 -4 -2 0
6899 305 58 4.0999999999999998e-01 -5.7223034870530540e+00 -2.4112071810862705e+01 -3.5437120233216049e+01 -7 -5 1
8192 736 58 4.0999999999999998e-01 -4.6801877736337865e+00 -2.5745165309973352e+01 -2.8103508041165455e+01 -7 -3 1
10404 1474 57 -8.1999999999999995e-01 -7.5142522377509202e+00 -2.7496302190345052e+01 -2.9376389734255170e+01 -2 7 0
9309 1109 57 -8.1999999999999995e-01 -1.0874647098725545e+01 -2.7039642762547057e+01 -3.3749395486139520e+01 0 2 1
5187 97 16 4.0000000000000002e-01 -1.1694915964928368e+01 -2.7426941711673265e+01 -3.0051619052471935e+01 0 0 0
6930 316 57 -8.1999999999999995e-01 -2.9913994526972623e+00 -2.7885800538819346e+01 -3.1618323485932180e+01 -3 -4 1
12667 2228 58 4.0999999999999998e-01 -1.1294354621842045e+01 -2.2906488791357578e+01 -3.7557965651034671e+01 9 -8 0
8402 806 58 4.0999999999999998e-01 -3.7534278915917589e+00 -2.7101718973890932e+01 -3.4370286296271750e+01 1 -4 1
13164 2394 57 -8.1999999999999995e-01 -6.8150218493100994e+00 -2.2335964412406259e+01 -3.4299957871982571e+01 -4 0 0
11298 1772 57 -8.1999999999999995e-01 -1.7725462152630307e+00 -2.6924001372957800e+01 -3.4810178946621008e+01 -2 3 0
8400 806 57 -8.1999999999999995e-01 -4.6367714597801601e+00 -2.6810042547125740e+01 -3.4003369326391542e+01 1 -4 1
5248 98 2 -8.0000000000000004e-01 -1.7072219755160458e-02 -2.1534760936883899e+01 -2.6051357053735899e+01 0 0 0
9311 1109 58 4.0999999999999998e-01 -1.0662292353504473e+01 -2.7742134281398364e+01 -3.4428664552954515e+01 0 2 1
6989 335 58 4.0999999999999998e-01 -8.4633682704102178e+00 -2.7923439233548805e+01 -3.1229696069900562e+01 8 -2 1
13747 2588 58 4.0999999999999998e-01 -2.6179920553304719e+00 -2.5463425981043159e+01 -2.9775322264432702e+01 -5 -5 0
13748 2588 58 4.0999999999999998e-01 -1.2986644506902145e+00 -2.6024799920332057e+01 -2.8993119769712234e+01 -5 -5 0
6771 263 57 -8.1999999999999995e-01 -2.0659319718326081e+00 -2.3603495409883731e+01 -3.5602726018046823e+01 -2 7 1
6987 335 57 -8.1999999999999995e-01 -8.6733033115005362e+00 -2.7567014882287104e+01 -3.2140124188006276e+01 8 -2 1
8799 939 57 -8.1999999999999995e-01 -1.2319415054533943e+01 -1.9624398528186649e+01 -3.5976859620222065e+01 2 -7 1
9948 1322 57 -8.1999999999999995e-01 -7.8242617620974073e+00 -2.5707679420990338e+01 -3.6561078241550476e+01 6 -1 1
9961 1326 58 4.0999999999999998e-01 -6.6017240332802736e+00 -2.5322645166573839e+01 -3.7960102740596525e+01 -3 -2 1
10405 1474 58 4.0999999999999998e-01 -7.5622929965784174e+00 -2.6833701740308669e+01 -2.8628963328107616e+01 -2 7 0
12085 2034 58 4.0999999999999998e-01 -3.1692409388619112e+00 -2.0005486998005885e+01 -3.5993074857762963e+01 5 16 0
7247 421 58 4.0999999999999998e-01 -2.6824458328068346e-02 -1.5576452950826745e+01 -3.5832775492386368e+01 -4 7 1
12288 2102 57 -8.1999999999999995e-01 -3.9180597887024149e-01 -2.0850912413073694e+01 -3.2568006332197847e+01 6 -2 0
13676 2564 58 4.0999999999999998e-01 -1.3938950883891648e+01 -3.5278589890658907e-02 -2.8387870156451129e+01 11 -1 0
6988 335 58 4.0999999999999998e-01 -8.4585756897388613e+00 -2.8260556004385791e+01 -3.2827792611586993e+01 8 -2 1
12084 2034 57 -8.1999999999999995e-01 -3.7926451498551046e+00 -1.9589291633927850e+01 -3.5331150654754140e+01 5 16 0
11299 1772 58 4.0999999999999998e-01 -1.0740584584843162e+00 -2.6229789797779564e+01 -3.4983918136302869e+01 -2 3 0
12625 2214 58 4.0999999999999998e-01 -9.7319557134357346e+00 -1.9048634308520672e+01 -3.4150285085648733e+01 -3 0 0
9652 1223 58 4.0999999999999998e-01 -1.2571440474316683e+01 -1.8727832204334280e+01 -3.2518034083750614e+01 0 1 1
9651 1223 57 -8.1999999999999995e-01 -1.1877858980618866e+01 -1.8032209101935610e+01 -3.2330806578733110e+01 0 1 1
9653 1223 58 4.0999999999999998e-01 -1.1290318647878699e+01 -1.7922377067326828e+01 -3.3132508363611052e+01 0 1 1
6603 207 57 -8.1999999999999995e-01 -2.7033761030247163e+00 -2.1555032451287573e+01 -3.3692784940836191e+01 2 4 1
14017 2678 58 4.0999999999999998e-01 -1.4147321201962665e+01 -2.0492503062970929e+01 -3.8300985016318243e+01 1 6 0
13818 2612 57 -8.1999999999999995e-01 -1.3631647841076923e+01 -2.4680737661992449e+01 -2.9025292561993606e+01 15 -2 0
12652 2223 58 4.0999999999999998e-01 -1.0333362238424570e+01 -2.0666609674950820e+01 -3.0556548186770058e+01 2 5 0
11718 1912 57 -8.1999999999999995e-01 -8.5534100709355521e+00 -2.3408707942155502e+01 -2.8956035090124477e+01 8 2 0
11719 1912 58 4.0999999999999998e-01 -7.6269989520825021e+00 -2.3160967439540173e+01 -2.9239560226486976e+01 8 2 0
12651 2223 57 -8.1999999999999995e-01 -9.8696030780978266e+00 -2.0310148217088429e+01 -3.1367630715453352e+01 2 5 0
12653 2223 58 4.0999999999999998e-01 -1.0400971893986309e+01 -1.9554722120898344e+01 -3.1751006773513694e+01 2 5 0
13746 2588 57 -8.1999999999999995e-01 -2.2675237567063427e+00 -2.5795522867407279e+01 -2.8899608091054869e+01 -5 -5 0
9995 1337 58 4.0999999999999998e-01 -1.8241118447587166e+01 -1.2179165865286357e+01 -3.7432847185730303e+01 -7 0 1
3978 74 12 8.0000000000000004e-01 -5.9949936371697508e+00 -1.6835013146016468e+01 -1.9443693462917047e+01 0 0 0
10616 1544 58 4.0999999999999998e-01 -3.2726508348392933e+00 -1.9272117377156455e+01 -3.0423186700072204e+01 2 0 0
10288 1435 58 4.0999999999999998e-01 -5.8126383930053862e+00 -1.8188917264674206e+01 -3.3106713732931567e+01 0 -2 0
8456 824 58 4.0999999999999998e-01 -6.6672029149122842e+00 -2.1458727099725937e+01 -3.7616363954655206e+01 4 10 1
10287 1435 57 -8.1999999999999995e-01 -5.7297653842431266e+00 -1.8776886686977178e+01 -3.2302091952651480e+01 0 -2 0
10614 1544 57 -8.1999999999999995e-01 -3.5162867710372936e+00 -1.8381599277455237e+01 -3.0807396719934236e+01 2 0 0
7647 555 57 -8.1999999999999995e-01 -6.5493821763454960e+00 -2.0281544025226481e+01 -3.6163227009695802e+01 6 8 1
10289 1435 58 4.0999999999999998e-01 -6.3892432605090868e+00 -1.9525838284208987e+01 -3.2366594637057574e+01 0 -2 0
7649 555 58 4.0999999999999998e-01 -5.7014238278170453e+00 -1.9954909089027367e+01 -3.5745764780923189e+01 6 8 1
3028 57 8 -5.0000000000000000e-01 -2.5638531995861786e+01 -8.8659580703131464e+00 -2.5333096179742853e+01 0 0 0
13873 2630 58 4.0999999999999998e-01 -2.3063066874742280e+01 -5.0839869617196243e-01 -3.0298184070302209e+01 -12 -1 0
12040 2019 58 4.0999999999999998e-01 -1.8994558119966900e+01 -1.9731585597833931e+01 -3.7672088992029785e+01 -2 1 0
6772 263 58 4.0999999999999998e-01 -1.3431268073805036e+00 -2.4228330673419510e+01 -3.5897909504021300e+01 -2 7 1
13047 2355 57 -8.1999999999999995e-01 -1.2029039399198638e-02 -2.5229500863561885e+01 -3.6373737711084154e+01 3 -1 0
8428 815 58 4.0999999999999998e-01 -2.5045023818122484e+01 -1.7483965513826092e+01 -2.9363055106278175e+01 1 1 1
6604 207 58 4.0999999999999998e-01 -2.3909609727467576e+00 -2.2241594690918063e+01 -3.4349310311944393e+01 2 4 1
11720 1912 58 4.0999999999999998e-01 -8.5251245792771257e+00 -2.4257325208586288e+01 -2.8427786896017913e+01 8 2 0
10694 1570 58 4.0999999999999998e-01 -2.4155069840838813e+01 -7.9604260306498524e+00 -3.1860895103958420e+01 -2 -1 0
7701 573 57 -8.1999999999999995e-01 -1.1048998514155279e+01 -1.6578864568278846e+01 -3.8472120912632356e+01 -7 0 1
4304 80 15 0.0000000000000000e+00 -7.7597109312555785e+00 -6.1748042722741592e-01 -2.3753560388068639e+01 0 0 0
6773 263 58 4.0999999999999998e-01 -2.9579661828174970e+00 -2.4028445300329878e+01 -3.5756651425203152e+01 -2 7 1
13620 2546 57 -8.1999999999999995e-01 -4.2691685023807224e+00 -1.8774643405668670e+01 -3.7919051315813903e+01 10 1 0
6931 316 58 4.0999999999999998e-01 -3.0895876222604706e+00 -2.6897172490017514e+01 -3.1732229830713905e+01 -3 -4 1
11804 1940 58 4.0999999999999998e-01 -1.5767384048429429e+01 -1.4352419206878153e+01 -3.6563930420075657e+01 -1 2 0
7766 594 58 4.0999999999999998e-01 -2.0847904912866184e+01 -9.9396173187809680e+00 -3.7430167756530857e+01 -4 -7 1
12289 2102 58 4.0999999999999998e-01 -1.7046040345166702e-01 -2.1435288539490013e+01 -3.1787299426206481e+01 6 -2 0
13581 2533 57 -8.1999999999999995e-01 -1.6787419786748259e+01 -1.7074541578210265e+01 -3.1867507329154545e+01 -5 -4 0
11132 1716 58 4.0999999999999998e-01 -2.1380209014536785e+01 -1.6901692078296655e+01 -3.2726400287947122e+01 -9 -6 0