ITEM: TIMESTEP
0
ITEM: NUMBER OF ATOMS
21
ITEM: BOX BOUNDS pp pp pp
-26.1321 26.1321
-28.1294 28.1294
-38.0776 38.0776
ITEM: ATOMS id mass x y z vx vy vz fx fy fz 
12690 15.994 -18.8272 -27.0028 -6.04678 0.00383688 -0.00179241 -0.000342851 -1.04293 -0.0132745 0.177434 
12691 1.008 -19.278 -26.1543 -5.76953 0.0179079 0.011044 -0.0167664 0.80921 -1.20584 -0.37589 
12692 1.008 -19.1672 -27.7594 -5.48822 -0.00012633 0.0166374 0.0222065 0.876526 1.48138 -1.1332 
11366 1.008 -15.2785 9.18638 4.39085 0.0115533 -0.00205769 -0.000132581 0.063732 0.2054 -0.303945 
11365 1.008 -15.038 10.7851 4.62294 0.00498077 -0.00115679 0.000404299 0.0382005 0.117058 -0.128549 
11364 15.994 -15.1222 10.0632 3.93611 0.00378916 -0.000618088 -1.71247e-05 -1.67482 2.3772 -2.20682 
13537 1.008 -2.43688 10.3007 14.9471 -0.0132304 -0.000664426 -0.00330115 0.411765 -0.850226 -0.934001 
13538 1.008 -2.85033 11.0246 13.5426 0.00116504 -0.0160617 -0.015484 0.91512 -1.25632 -0.275856 
13536 15.994 -2.23664 10.3602 13.9691 0.00818808 0.00113874 0.00118391 -3.34557 4.19215 3.07807 
10346 1.008 4.60706 -2.74534 -26.2399 0.00479865 0.00304534 0.0155202 3.28507 2.88187 0.0127685 
10345 1.008 3.54799 -2.07038 -25.1956 -0.000942046 0.0167124 0.000877014 1.02505 -1.97478 -0.144605 
10344 15.994 4.07114 -1.92615 -26.0356 -0.000416865 0.00375067 -0.00103341 -3.89549 -4.41712 -2.37016 
12728 1.008 21.9242 -4.46697 -15.371 -0.022807 0.0113272 0.00190112 0.130713 -0.84851 -3.58949 
12727 1.008 23.1159 -3.3853 -15.6493 -0.00100392 -0.011805 0.00542903 0.0901675 -1.83445 1.2709 
12726 15.994 22.355 -3.88629 -16.0617 -0.000101392 -0.00831525 -0.000461972 -6.25035 1.93613 1.05923 
10497 15.994 0.732082 -17.2243 24.0467 0.00301782 0.00336797 -0.00033907 2.55949 -5.88473 -5.48177 
10498 1.008 0.802964 -17.0165 23.0711 -0.00891517 -0.00585687 -0.00319484 3.0471 3.32364 1.23693 
10499 1.008 0.855134 -18.2065 24.1886 0.0155538 0.00620816 0.00857489 -5.49292 -1.15093 -5.04416 
13584 15.994 24.2414 9.30256 34.0094 -0.000692349 0.000340009 0.000827326 -2.66737 5.79365 -6.11532 
13586 1.008 23.8512 9.77546 33.2193 0.00394169 -0.00585718 -0.00518211 3.27774 5.40383 1.22577 
13585 1.008 24.6468 9.97169 34.6322 0.00641378 0.00420762 -0.00794512 3.35351 -4.88924 2.40937 
ITEM: TIMESTEP
1000
ITEM: NUMBER OF ATOMS
21
ITEM: BOX BOUNDS pp pp pp
-26.1677 26.1677
-28.0054 28.0054
-38.32 38.32
ITEM: ATOMS id mass x y z vx vy vz fx fy fz 
12690 15.994 -18.7114 -26.603 -6.06281 0.0113 -0.00378298 -0.000468718 0.0333404 2.69398 -0.860026 
12691 1.008 -17.9744 -26.1661 -5.54719 0.0101583 -0.0168014 0.0121919 -0.529427 -0.276622 -0.463174 
12692 1.008 -19.2328 -27.2032 -5.45624 -0.022241 0.0210298 -0.00475468 2.23214 2.60564 -2.71528 
11366 1.008 -14.173 9.53622 4.12587 0.00478225 0.0169624 0.00159537 -0.86871 0.10613 -0.0554443 
11365 1.008 -15.4753 9.31326 3.16569 0.010959 -0.0056464 -0.0015224 0.0126368 0.0556261 0.162565 
11364 15.994 -15.1605 9.67149 4.04465 0.00233743 -0.0018236 -4.5985e-06 -0.0330299 -0.0614857 -0.910603 
13537 1.008 -2.02843 10.1897 13.6667 -0.00640186 0.00645531 -0.0035217 0.0516124 0.296507 0.134869 
13538 1.008 -1.17552 11.5418 13.3323 0.0108506 -0.00291291 0.00259272 -0.287267 -0.264686 0.0429761 
13536 15.994 -1.57333 10.9871 14.0631 0.00356386 -0.00101316 5.85473e-05 -2.9846 -0.59456 0.990224 
10346 1.008 5.66139 -1.21787 -26.4274 -0.00422051 0.0202612 0.00720601 1.62252 -0.439588 4.2165 
10345 1.008 4.95971 -2.57982 -25.8614 0.0250008 0.00789984 0.0137474 -2.27992 1.90903 0.557892 
10344 15.994 4.84868 -1.59333 -25.9818 -0.000978166 0.00314397 -0.00132056 -0.194517 -3.81211 -10.0933 
12728 1.008 20.6136 -5.61251 -15.6326 0.00115744 0.00538652 -0.00827718 0.566664 3.20789 2.2625 
12727 1.008 22.2284 -5.45353 -15.4458 -0.000232696 -0.00246571 0.0105302 0.544232 1.62276 -1.58241 
12726 15.994 21.4564 -5.2827 -16.0581 0.00826907 -0.00229069 -0.000141995 -1.83963 3.52404 -6.46301 
10497 15.994 0.873223 -17.1359 24.056 -0.00092124 0.000207123 -0.000684095 -6.11983 18.7472 -7.76528 
10498 1.008 1.39981 -16.7782 23.2848 0.0159786 -0.0245678 -0.000610328 -1.59418 -1.97537 0.0314943 
10499 1.008 0.518468 -18.0422 23.8263 -0.0165005 0.00320943 0.0114649 7.88346 -2.48986 5.46139 
13584 15.994 23.4234 11.4022 33.9598 0.00416062 -0.00829718 0.00081041 5.91828 1.83636 3.75126 
13586 1.008 23.5742 12.3811 33.8216 0.0242139 -0.0119213 -0.00307281 -3.035 -0.55229 -0.706273 
13585 1.008 23.8535 11.1158 34.816 0.0184987 -0.018452 -0.00978602 -3.09467 1.10037 1.12335 
ITEM: TIMESTEP
2000
ITEM: NUMBER OF ATOMS
21
ITEM: BOX BOUNDS pp pp pp
-26.031 26.031
-28.0917 28.0917
-38.3889 38.3889
ITEM: ATOMS id mass x y z vx vy vz fx fy fz 
12690 15.994 -18.9941 -26.66 -6.01118 -0.0010732 0.00215012 -0.0008716 1.17416 -2.46356 -1.49987 
12691 1.008 -19.2769 -27.361 -5.35645 -0.0202713 0.0245081 0.014784 2.13809 1.64673 -1.37293 
12692 1.008 -19.8009 -26.2832 -6.4662 0.0083588 0.0222386 -0.00095428 1.80945 0.372586 -0.126536 
11365 1.008 -15.8517 10.6154 3.37213 -0.00439123 -0.00932645 -0.000538575 0.319877 -0.0752641 0.323971 
11366 1.008 -14.4036 11.1471 3.90861 -0.00879689 0.0105291 -0.00831703 -0.299798 -0.247567 0.0383844 
11364 15.994 -15.1267 10.4701 4.04533 -0.00243026 0.00551654 0.000558112 -1.08813 0.0267623 -0.759799 
13537 1.008 -2.3082 11.7382 14.3783 0.0101711 0.000147898 -0.00191694 -0.0817697 -0.0287213 -0.123736 
13538 1.008 -2.02262 10.6364 13.2069 0.00401896 -0.00112224 -0.00223459 0.299731 -0.0809637 0.0999206 
13536 15.994 -1.65025 11.0726 14.0261 0.00471926 -0.00639926 0.000261644 -2.93944 -0.211127 2.89403 
10346 1.008 5.31924 -1.91187 -26.1726 -0.010684 -0.0191675 -0.00540559 0.656136 3.87924 2.16697 
10345 1.008 3.95256 -1.94252 -25.2788 -0.0171367 -0.00418616 -0.0147594 0.869725 5.69351 1.60187 
10344 15.994 4.42405 -1.4881 -26.0346 0.00109664 0.00360698 0.00127087 2.99456 -4.56523 -5.40939 
12728 1.008 19.6787 -5.07757 -16.2213 -0.0124216 0.00320284 0.00116329 0.957637 -2.65724 -0.0750298 
12727 1.008 20.7772 -4.72581 -15.065 -0.00951692 -0.00119359 -0.000252223 1.47522 -2.79291 -0.587952 
12726 15.994 20.5821 -4.68673 -16.045 -0.0104384 -0.000817363 -5.7419e-05 -5.63036 3.98396 -1.55473 
10499 1.008 1.09016 -18.2055 24.0039 0.00457274 0.0109489 -0.0259093 -2.98928 0.56196 1.18328 
10497 15.994 0.747196 -17.2675 24.0537 -0.00424468 0.00631068 0.00103507 -1.8895 -7.05387 -0.932809 
10498 1.008 0.461549 -16.9676 23.1435 -0.00618348 0.0301174 0.00948576 5.3505 0.833865 0.350313 
13584 15.994 23.4199 12.4671 33.974 0.000563307 5.70974e-05 -0.000824458 6.32118 4.89185 -6.26692 
13586 1.008 24.1507 13.1478 33.9222 -0.00281277 0.00383503 0.00116678 0.988436 0.106324 6.75808 
13585 1.008 23.7395 11.6728 34.4907 -0.00138097 0.00755511 0.0119149 -4.39471 -0.910756 -0.345199 
ITEM: TIMESTEP
3000
ITEM: NUMBER OF ATOMS
21
ITEM: BOX BOUNDS pp pp pp
-26.0574 26.0574
-28.0607 28.0607
-38.2607 38.2607
ITEM: ATOMS id mass x y z vx vy vz fx fy fz 
12690 15.994 -19.001 -26.5927 -6.0085 0.0019866 -0.00535096 0.000872966 5.36135 -3.28342 -3.7216 
12691 1.008 -18.2203 -26.0277 -6.27567 0.00476924 -0.0108995 -0.0027409 0.226817 -0.190274 -0.0575199 
12692 1.008 -19.7024 -26.0161 -5.58946 0.000992653 0.0021558 -0.0111105 0.53038 -0.774079 -0.287674 
11365 1.008 -14.4177 11.9773 4.72085 0.0107833 0.0159301 -0.0192443 -2.02273 -0.459852 -1.61487 
11366 1.008 -14.2732 10.7594 3.64223 -0.0114445 0.0062908 -0.0113503 -1.0768 0.0277065 -0.587909 
11364 15.994 -14.872 11.4869 3.97712 -0.00903165 0.0021665 0.00192818 1.79638 0.523988 1.49524 
13537 1.008 -3.0629 12.1075 14.12 0.00299165 -0.000342659 -0.00155005 -0.0919725 -0.313456 0.36844 
13538 1.008 -2.15397 11.2213 13.0924 0.0104903 0.00688551 -0.00115747 -0.0386792 -0.20915 0.581134 
13536 15.994 -2.29061 11.4762 14.0496 0.000696358 -0.00334849 0.000170638 0.550593 -0.88506 0.648298 
10346 1.008 5.2529 -1.21692 -25.7636 0.00442506 0.00836188 0.00697384 0.323694 3.46093 3.17995 
10345 1.008 3.63396 -1.32561 -25.577 0.00284229 -0.0218469 -0.024516 2.76062 2.16622 -1.06713 
10344 15.994 4.37137 -0.835292 -26.0416 0.00337575 0.0016464 0.00110557 5.6554 3.33014 -10.7563 
12728 1.008 20.6237 -4.53884 -15.7922 0.00670008 0.00528805 -0.00439394 0.339393 0.021522 3.23224 
12727 1.008 21.683 -3.36444 -15.3845 0.0110074 -0.00261717 0.00722613 2.06817 -0.673118 -0.54094 
12726 15.994 21.4728 -4.07882 -16.0519 0.00806334 0.00516318 -0.000178495 -6.58447 -5.27172 5.1662 
10497 15.994 1.21802 -17.6708 24.0357 -0.00534375 0.001837 -0.000569721 2.15688 -2.45443 -0.722013 
10498 1.008 1.87039 -17.7181 23.2792 -0.00462411 0.00973917 -0.000434623 -6.13865 4.97405 -5.563 
10499 1.008 0.78004 -18.5619 24.1549 0.0169273 -0.00780651 0.00947442 -2.67958 2.26901 -6.26039 
13584 15.994 23.1731 12.6401 33.9667 0.000692431 -0.00369971 0.000477058 2.48108 -1.77182 -0.29051 
13586 1.008 23.9166 12.8874 34.588 0.00430167 -0.0158183 0.000975599 -2.40362 -2.98921 3.56456 
13585 1.008 23.0771 11.6451 33.9404 -0.00785657 -0.00263347 -0.00854511 0.541745 0.366446 -5.13989 
ITEM: TIMESTEP
4000
ITEM: NUMBER OF ATOMS
21
ITEM: BOX BOUNDS pp pp pp
-26.0975 26.0975
-28.1332 28.1332
-38.2248 38.2248
ITEM: ATOMS id mass x y z vx vy vz fx fy fz 
12692 1.008 -19.6371 -27.4009 -6.83993 -0.00803692 -0.0114661 0.00397775 0.172251 1.55351 0.472242 
12691 1.008 -18.8761 -28.1102 -5.58082 -0.0348309 0.00899513 0.0317021 -0.767282 4.93516 -0.700888 
12690 15.994 -19.1654 -27.2372 -5.97348 -0.00212533 0.00455616 -0.00224867 3.89568 -10.1241 -1.17416 
10499 1.008 -0.588194 -16.886 24.0055 0.00557913 0.00428715 0.0187843 0.219248 1.42955 -1.43468 
11365 1.008 -15.0776 10.9427 4.76398 -0.00328817 -0.0164582 0.00883038 0.349317 -0.472971 -0.616564 
11366 1.008 -15.3717 10.4444 3.23666 -0.00621314 0.0023833 0.00322842 0.0193616 -0.0461358 -0.0686004 
11364 15.994 -14.7271 10.401 3.99996 -0.00177087 -0.00195871 -0.000759989 2.50965 5.73744 -5.32408 
13538 1.008 -1.48834 11.8391 13.6696 0.00240183 0.0111533 0.00642252 0.241347 0.229017 -0.298473 
13536 15.994 -0.682987 11.3625 14.022 0.00154818 0.00522997 0.000367519 -1.21483 6.83171 3.23125 
10345 1.008 4.34718 -1.60064 -25.4056 0.00559515 0.00788956 0.0104493 2.28011 -2.7277 0.924169 
10344 15.994 5.03713 -1.24727 -26.0373 0.00101478 -0.0034753 -0.000924147 -9.315 7.54247 10.3667 
10346 1.008 5.85065 -1.82774 -26.0019 0.00156137 -0.0024124 0.00421422 -1.36559 -1.0277 -8.24444 
12728 1.008 19.1122 -5.34076 -16.1385 0.0182269 -0.0245784 -0.00396901 -2.97695 4.64992 1.32768 
12727 1.008 20.3528 -4.72733 -15.2712 0.0225761 -0.0122889 -0.0188736 -0.967441 1.87928 -0.680415 
12726 15.994 19.7315 -4.56218 -16.0372 -0.00171347 -0.00937977 0.00143963 13.6785 -5.43947 8.5647 
10498 1.008 0.865282 -17.3676 23.4371 -0.00813757 0.00489178 -0.0167828 -1.95022 3.58758 -2.6485 
10497 15.994 0.397006 -16.7171 24.0351 0.00683192 0.000331941 -0.000126141 -7.83099 -1.31881 5.9687 
13537 1.008 0.10943 11.9711 13.9816 0.00721753 -0.00299326 -0.012254 -0.574222 0.00895952 -0.450355 
13584 15.994 23.2673 11.9691 33.978 -0.00286781 0.00198407 -0.000672208 0.207027 0.805772 -3.26541 
13586 1.008 23.5471 11.6515 34.884 -0.0142832 0.0108301 0.00595851 -1.20841 1.08055 -0.139745 
13585 1.008 22.8689 11.2082 33.4659 -0.00389592 -0.00110105 0.00470745 -0.11987 0.0458705 0.0921261 
ITEM: TIMESTEP
5000
ITEM: NUMBER OF ATOMS
21
ITEM: BOX BOUNDS pp pp pp
-26.1054 26.1054
-28.1095 28.1095
-38.2314 38.2314
ITEM: ATOMS id mass x y z vx vy vz fx fy fz 
12692 1.008 -18.4253 -25.7025 -6.4027 0.00885442 -0.0226482 -0.0222491 -1.97566 -1.49197 0.785345 
12691 1.008 -19.7672 -26.6115 -6.60432 -0.0124343 -7.67396e-06 0.0173396 1.11067 0.73216 0.492156 
12690 15.994 -19.1089 -26.2642 -5.93653 0.00341754 0.00269245 0.000309416 6.4962 -3.61648 -4.72123 
11365 1.008 -13.6292 11.9196 3.2031 -0.00570685 0.00770079 -0.00231948 -0.177217 0.0240965 0.286256 
11366 1.008 -14.8157 12.5945 4.09995 -0.0113176 -0.00969653 0.00335342 0.218982 -0.206691 -0.00109361 
11364 15.994 -14.1643 11.8378 4.04392 -0.00091751 -0.000487928 -6.51627e-05 -1.16293 2.95744 1.50293 
13538 1.008 -0.286872 13.2326 13.7951 -0.0153157 -0.000828607 0.00458529 -0.176547 -0.647992 0.0277965 
13536 15.994 -0.404461 12.265 14.0186 0.00079229 -0.00358239 0.00111144 0.270211 -0.158516 -1.90828 
10345 1.008 4.79933 -1.24956 -25.251 0.00412087 0.00138645 2.40192e-05 0.524978 -2.12607 -0.878731 
10344 15.994 5.05981 -0.688623 -26.0368 0.00517765 0.00141429 0.000395587 10.026 -3.69282 8.15316 
10346 1.008 6.05068 -0.7323 -26.1644 0.00384961 -0.00911557 -0.00630083 0.0248163 -1.47508 -0.797273 
12728 1.008 19.4739 -5.5131 -16.5128 -0.000208693 0.00961298 0.0019316 -3.50416 3.00024 1.3005 
12727 1.008 20.4159 -5.54006 -15.1787 0.00133206 0.0116856 0.000889988 -5.63676 2.43822 2.77885 
12726 15.994 20.2048 -5.04141 -16.0194 0.00110309 0.00978442 -0.000177827 -6.48643 -5.04867 -2.35764 
10498 1.008 1.28234 -17.1023 23.0793 -0.00145166 0.0129595 -0.00195688 0.55536 -1.67337 -0.0397874 
10497 15.994 1.03011 -17.005 24.0421 0.00369065 0.00419397 0.000281566 -7.36706 -4.96718 -11.3728 
10499 1.008 0.271972 -17.6222 24.2526 0.00154278 0.00588065 -0.00251074 -0.129012 -0.499732 -0.232916 
13537 1.008 0.468004 11.7888 13.9093 0.0036247 0.00695977 -0.0222206 -1.44531 0.600066 0.177699 
13584 15.994 22.438 12.2899 33.9733 0.0069698 -0.00630081 -0.000204146 -0.762606 9.56778 -2.83942 
13586 1.008 22.9512 13.0062 34.446 0.0118236 -0.0141091 0.00633937 0.134649 -1.42406 2.04242 
13585 1.008 22.9675 11.4416 33.9776 -0.00120603 -0.0114055 -0.00310017 -5.33579 -2.36672 6.38324 
ITEM: TIMESTEP
6000
ITEM: NUMBER OF ATOMS
21
ITEM: BOX BOUNDS pp pp pp
-26.0999 26.0999
-28.0732 28.0732
-38.3088 38.3088
ITEM: ATOMS id mass x y z vx vy vz fx fy fz 
12692 1.008 -18.9798 -25.551 -5.30921 0.0169704 0.0106876 -0.00926513 -0.472702 -0.716196 -1.15051 
12691 1.008 -19.6397 -26.2324 -6.6388 -0.0157353 -0.0128547 0.0190572 1.21877 0.551401 1.75506 
12690 15.994 -18.8682 -26.2622 -6.00328 0.000938807 -0.00025935 -0.000617131 3.5108 -0.357787 -2.89687 
11365 1.008 -15.6495 11.9785 4.80843 -0.000941895 -0.018291 0.000575426 0.778565 -0.237205 -0.788043 
11366 1.008 -15.338 12.7292 3.3917 -0.0166011 0.00411276 0.00902755 0.433426 -0.693409 0.285257 
11364 15.994 -15.0787 11.969 3.98739 -0.00233428 0.00143957 -0.000605214 0.95978 -3.00736 -2.16134 
10345 1.008 5.08627 -1.71971 -25.1126 0.0189299 -0.0174667 -0.00874659 1.90611 -4.4326 -3.9229 
10344 15.994 4.97 -1.34337 -26.0317 0.00116983 0.000836403 0.00104557 -4.99017 2.29327 3.04897 
10346 1.008 5.85625 -1.04225 -26.3837 -0.00652125 0.0130541 -0.00784347 -1.15869 -1.02434 -0.967151 
12728 1.008 18.0097 -6.02478 -16.1945 -0.00628062 -3.08092e-05 -0.00616063 0.52207 0.656456 -2.28014 
12727 1.008 18.8694 -5.20304 -15.075 -0.00424994 -0.0137902 0.00234915 -0.520559 -1.52331 -0.452189 
12726 15.994 18.6374 -5.26063 -16.046 0.00355195 -0.0093602 0.000240213 1.32127 -0.683469 -7.51379 
10498 1.008 1.8455 -17.1598 23.0692 0.0156068 -0.00695013 0.00260312 2.25613 -4.68125 0.842407 
10497 15.994 1.61094 -17.205 24.0402 0.00172694 0.00256827 -0.000338786 -3.61047 -3.78506 -4.39933 
10499 1.008 1.41458 -18.1526 24.2924 -0.01611 0.00711458 0.00277243 -4.43035 2.00371 1.53389 
13538 1.008 1.6518 12.5385 14.9408 0.000996806 -0.0181665 0.00151819 0.560306 -0.505929 -0.334179 
13536 15.994 1.81011 12.3609 13.9695 0.0042262 1.27062e-05 -0.00126268 -8.71228 2.02858 3.71237 
13537 1.008 2.21032 13.1719 13.5428 0.0197977 0.00272952 0.0185168 -0.542711 -1.5913 0.591535 
13584 15.994 22.5911 11.0353 34.0304 -0.00304784 -0.00440446 0.000473986 5.91147 5.6363 5.36671 
13586 1.008 22.5477 11.928 34.4789 0.0220572 0.000328038 -0.0065102 -1.85194 0.788691 -4.51369 
13585 1.008 22.6268 11.1612 33.039 -0.0129853 -0.0135298 -0.00101058 -4.26534 -3.601 0.119935 
ITEM: TIMESTEP
7000
ITEM: NUMBER OF ATOMS
21
ITEM: BOX BOUNDS pp pp pp
-26.0686 26.0686
-28.0628 28.0628
-38.4184 38.4184
ITEM: ATOMS id mass x y z vx vy vz fx fy fz 
12692 1.008 -18.2881 -26.217 -6.40314 -0.00412429 -0.00750763 -0.0042075 -0.0614991 -0.148924 0.191879 
12691 1.008 -19.1161 -27.6182 -6.53986 -0.0148293 -0.00198957 0.00411064 0.115517 0.111541 0.219237 
12690 15.994 -18.9158 -26.8432 -5.94057 -0.00790423 -0.000603594 6.10414e-06 -1.2871 1.24912 0.940317 
11365 1.008 -14.805 11.5562 3.93062 0.0144408 -0.018123 -0.0176163 1.91851 1.3178 0.0627781 
11366 1.008 -13.8804 12.8081 3.43511 -0.00794701 0.00831857 0.00742246 -0.415779 -0.423886 0.190884 
11364 15.994 -13.9221 12.0128 4.03997 0.00142344 0.00266922 0.000642451 1.95844 -1.92085 -0.536305 
10346 1.008 5.67077 -0.571225 -26.4238 -0.00295134 0.000812635 -0.00667639 0.873133 -4.77279 -0.246207 
10345 1.008 4.90624 -1.21476 -25.1319 0.00543142 0.0185282 0.00712046 -1.73907 -3.78629 -2.37187 
10344 15.994 4.77877 -0.789628 -26.028 -0.000243303 0.00182031 -2.79867e-05 0.129592 8.34334 6.3928 
12728 1.008 18.8648 -6.15405 -16.2583 -0.00720616 0.0130671 0.00803681 1.35769 -0.362092 -0.0720829 
12727 1.008 19.7358 -5.47146 -15.0571 0.0174628 5.69149e-05 -0.00245703 0.991667 -2.0344 -0.6376 
12726 15.994 19.5694 -5.47783 -16.0431 0.00486776 0.00316107 -0.000351658 -4.65133 3.4792 -0.197019 
10498 1.008 1.47159 -17.0234 23.0584 0.0175931 -0.00853153 0.000520501 7.31619 1.89954 1.95704 
10497 15.994 1.33965 -17.1382 24.0429 0.00290758 -0.000526285 -0.000529773 -7.894 6.96074 0.717316 
10499 1.008 1.28057 -18.1125 24.2604 0.00997839 0.000927195 0.00788543 2.12938 0.440757 -0.59568 
13538 1.008 1.73557 13.9577 13.1839 -0.00679556 -0.00519704 -0.00354978 -0.22002 -0.0653005 0.173744 
13536 15.994 1.56259 13.498 14.055 0.000765254 -0.00175709 -0.000228261 1.57121 -2.66055 -0.603824 
13537 1.008 0.817298 12.8407 13.9434 0.00433153 -0.00705315 0.00717162 0.0555893 0.201672 0.133299 
13584 15.994 22.0786 10.0926 34.035 0.00458707 -0.00251619 -9.6538e-05 -10.0263 -5.20052 6.24695 
13586 1.008 21.4553 10.7991 34.3701 0.0267454 0.0161197 0.00177115 2.78787 -0.425972 0.907973 
13585 1.008 21.8767 9.89726 33.0752 -0.0023713 0.00537006 -0.00023938 3.78226 6.19682 -1.57785 
ITEM: TIMESTEP
8000
ITEM: NUMBER OF ATOMS
21
ITEM: BOX BOUNDS pp pp pp
-26.1479 26.1479
-28.02 28.02
-38.1725 38.1725
ITEM: ATOMS id mass x y z vx vy vz fx fy fz 
12691 1.008 -19.7023 -27.3162 -6.10169 0.0105507 0.00546124 -0.0104092 0.491476 -0.330776 0.143451 
12690 15.994 -18.8244 -27.7882 -6.02098 0.00364461 -0.00547623 0.000638034 -2.05158 -0.252922 1.62109 
12692 1.008 -18.1647 -27.1905 -5.56537 0.00807731 -0.0101077 0.00028546 -0.0392498 -0.208761 0.00677613 
11365 1.008 -15.3547 11.9767 4.77561 -0.01103 -0.000328267 -0.00441381 0.141818 0.208446 -0.354076 
11366 1.008 -13.9261 11.8124 4.00119 -0.00180559 0.00842766 0.01077 -0.360451 0.253945 -0.0687561 
11364 15.994 -14.8408 12.2134 3.95104 -0.00480991 0.00015109 -0.000400587 0.809942 -0.880377 -5.1691 
10346 1.008 5.99151 -1.38146 -26.3147 -0.00503185 0.0015674 0.00160377 -0.0587751 -0.284281 0.591311 
10345 1.008 4.95864 -2.29144 -25.4357 0.00223956 0.00718396 0.0159529 -1.95177 1.99679 -0.0668775 
10344 15.994 5.04247 -1.48119 -26.0157 -0.00526431 -0.00425384 -0.00110648 -4.00819 5.40791 -2.35804 
12728 1.008 18.7655 -6.0305 -16.4666 -0.0142427 0.00142018 0.0114701 -0.43877 -1.35708 3.211 
12727 1.008 19.3758 -5.50501 -15.0457 0.0135321 0.000850638 -0.000276561 5.29965 1.12506 -1.71881 
12726 15.994 19.3389 -5.33681 -16.0307 0.00187693 -0.00427541 -0.000705454 -4.18492 -2.8578 -21.1604 
10498 1.008 1.57074 -17.2021 23.0803 0.0163246 -0.0265979 0.00722174 -0.844817 5.69164 1.67768 
10497 15.994 1.2991 -17.0601 24.0321 0.000255369 0.00237378 -0.00164476 1.76722 -6.30217 -1.93968 
10499 1.008 0.947041 -17.9163 24.4101 -0.00487737 0.0135166 0.0188757 -1.92454 -0.634301 -6.20904 
13537 1.008 0.367923 12.8784 14.5922 -0.00553772 0.0189879 -0.00694338 -0.339265 -0.30573 -1.41067 
13538 1.008 1.98441 12.7343 14.4082 -0.00512086 0.0135957 0.00110417 -0.429671 -0.513753 -0.809301 
13536 15.994 1.10291 12.704 13.937 -0.00416211 -0.00265076 0.000368008 -5.84041 0.127439 6.33091 
13584 15.994 21.7721 9.56743 34.0514 -0.00150068 0.00228503 0.00109176 -8.24475 2.08251 2.96684 
13586 1.008 21.3103 10.4537 34.015 -0.0301457 -0.0134236 -0.0181307 0.919663 -2.90825 3.08455 
13585 1.008 22.2037 9.37937 33.1692 -0.00700095 -0.00906664 0.000807618 3.90879 2.21015 2.34739 
ITEM: TIMESTEP
9000
ITEM: NUMBER OF ATOMS
21
ITEM: BOX BOUNDS pp pp pp
-26.1543 26.1543
-28.0313 28.0313
-38.1604 38.1604
ITEM: ATOMS id mass x y z vx vy vz fx fy fz 
12690 15.994 -19.1108 -27.7953 -6.00104 0.00428602 0.00590846 -0.00051096 -5.43621 -6.69691 5.17394 
12692 1.008 -18.4235 -27.769 -6.72691 0.0136555 -0.0131943 0.00767999 -1.6537 -0.762745 0.798324 
12691 1.008 -18.8335 -27.1879 -5.25657 0.0096507 0.00230246 0.000427441 -0.848188 -0.437029 0.388102 
11365 1.008 -16.1136 10.2141 4.88424 -0.000872114 0.0145573 0.00508039 0.247041 0.263925 -0.952961 
11366 1.008 -16.5113 10.4053 3.3117 -0.000336228 -0.0141911 0.00146011 0.270583 0.0168504 0.298233 
11364 15.994 -15.7814 10.507 3.98765 -0.000161571 -0.00308103 -0.000412206 3.80839 0.122795 -1.90988 
10346 1.008 5.76534 -0.752447 -26.4532 -0.0213381 0.00162352 -0.0238025 -4.86553 -0.492038 -3.86675 
10345 1.008 4.90452 -1.56993 -25.3314 0.00553035 -0.000253869 -0.00462787 3.0901 3.50423 2.79129 
10344 15.994 4.87135 -0.839497 -26.0136 -0.00904121 0.0050702 0.00179178 -10.4824 1.22447 4.83247 
12728 1.008 19.2454 -5.5218 -16.3562 -0.00517578 0.000397867 0.0114406 -2.76355 0.0886303 1.45889 
12727 1.008 19.5094 -4.57295 -15.0533 0.0286063 0.0143852 -0.00561866 -0.449202 -0.503281 -1.59031 
12726 15.994 19.3309 -4.57791 -16.0372 -2.96993e-05 0.00391644 -0.000366922 7.46796 -5.80585 9.30797 
10498 1.008 1.78299 -17.3993 23.0731 -0.0284153 0.0124038 0.00233784 6.1765 -2.94259 1.99672 
10497 15.994 1.75846 -17.6242 24.0471 0.000333971 -0.00192414 -0.00020069 -14.7598 7.86832 0.558185 
10499 1.008 1.26467 -18.4838 24.1789 0.0118916 -0.00838057 0.000846527 4.81803 -2.76164 -2.95091 
13537 1.008 1.10816 14.1187 14.082 -0.00985686 -0.00172382 -0.0146089 -0.0624872 -0.333971 0.182092 
13538 1.008 1.54939 12.8893 13.1014 -0.0129128 -0.0176925 0.00404947 -0.278203 -0.134718 1.34011 
13536 15.994 1.39746 13.1619 14.0515 -0.00192262 0.0001882 0.000665495 -3.01039 6.14348 0.923755 
13584 15.994 22.5576 9.14729 34.0359 -0.00371641 -0.00167399 0.000289109 -1.13645 3.57495 -3.14541 
13586 1.008 22.0255 9.86158 33.5813 -0.000188943 -0.0028601 -0.0057126 -0.994895 3.04252 5.5829 
13585 1.008 23.5302 9.28518 33.8486 -0.00286074 -0.00664342 0.00112529 -0.797559 -0.728162 -4.32027 
ITEM: TIMESTEP
10000
ITEM: NUMBER OF ATOMS
21
ITEM: BOX BOUNDS pp pp pp
-26.2049 26.2049
-28.1067 28.1067
-38.2112 38.2112
ITEM: ATOMS id mass x y z vx vy vz fx fy fz 
12692 1.008 -19.0367 -27.2383 -6.85402 0.0199442 0.00542558 -0.000586285 -0.439025 -0.98766 0.237668 
12690 15.994 -19.0317 -27.66 -5.94731 0.00383806 0.00655248 2.8435e-05 0.582775 -5.74727 -2.66126 
12691 1.008 -19.5199 27.6814 -5.98206 -0.0250084 0.0227001 0.000135104 1.01601 2.13194 -0.737145 
11365 1.008 -15.5968 9.89761 3.09266 -0.0108747 -0.00873237 0.00245976 -0.264173 -0.0413616 0.0264206 
11366 1.008 -15.9181 9.74991 4.6872 4.93598e-05 -0.00391042 0.00510929 -0.0633859 0.0455996 -0.151098 
11364 15.994 -15.2189 9.99028 4.01387 -0.00381597 -0.00830651 -0.000477029 -4.21957 0.453451 -2.11311 
10346 1.008 5.43756 -0.584788 -26.7137 -0.0191523 -0.0121815 -0.0111003 3.60491 7.60224 2.83704 
10345 1.008 4.9058 -0.986685 -25.2226 -0.00979144 -0.0267091 -0.0116856 0.0595248 0.449603 -0.843805 
10344 15.994 4.76373 -0.379061 -26.004 -0.00492567 -0.00869182 0.00143605 -9.23656 -10.9861 -0.15987 
12728 1.008 22.0264 -3.20439 -15.825 0.00720726 -0.00930558 -0.0110834 -3.26892 2.81766 3.4306 
12727 1.008 23.057 -2.0655 -15.2696 -0.0134223 -0.000826061 0.00987964 -0.581384 0.720843 -1.32798 
12726 15.994 22.5185 -2.36536 -16.0571 0.0023003 -0.00332194 7.58667e-05 -2.62452 -8.02931 -1.19452 
10498 1.008 1.13726 -17.363 23.1089 -0.00913348 0.0151858 -0.00281592 -3.72045 3.18107 -0.78041 
10497 15.994 0.775321 -17.432 24.0385 0.00340564 0.00396172 0.00121368 10.9665 1.20564 -1.1528 
10499 1.008 0.656804 -18.3951 24.28 -0.0131227 0.00159129 -0.0164417 -2.42383 1.27317 -2.72564 
13537 1.008 0.649439 13.1839 13.7431 0.00186762 -0.0171466 0.0161976 1.26971 0.525489 -0.0852724 
13538 1.008 2.2586 13.1652 13.4641 -0.00251439 0.00905814 -0.0108618 -0.898126 0.166228 -0.143775 
13536 15.994 1.53555 13.5312 14.05 0.00111722 -0.000612908 -0.000336278 -1.0805 -0.468967 1.71954 
13584 15.994 20.9462 10.9981 34.0208 0.000342276 0.00368509 0.000783768 0.550136 -6.75108 17.2607 
13585 1.008 21.769 11.4035 34.4191 0.0094586 -0.000401755 -0.01388 -1.78169 2.80639 -0.357221 
13586 1.008 20.6382 11.5566 33.2506 -0.00621331 0.00097916 0.00144388 0.981209 -6.02556 -3.18538 
ITEM: TIMESTEP
11000
ITEM: NUMBER OF ATOMS
21
ITEM: BOX BOUNDS pp pp pp
-26.1317 26.1317
-28.0548 28.0548
-38.2795 38.2795
ITEM: ATOMS id mass x y z vx vy vz fx fy fz 
12690 15.994 -18.4603 -27.9114 -6.03884 0.000390311 0.00272079 0.000677705 -3.43407 0.39689 4.9481 
12691 1.008 -18.1394 -26.9813 -6.21767 0.0272094 -0.00999598 -0.0172978 -0.675054 -2.79654 1.03932 
12692 1.008 -18.0907 27.8796 -5.16599 -0.00830616 0.0087071 0.00654466 0.170577 0.497714 -0.0815822 
11365 1.008 -15.8343 10.5566 4.73648 -0.00934351 -0.00236761 -0.0014764 0.236065 -0.413118 -0.243328 
11366 1.008 -15.281 10.6045 3.20051 -0.00693693 0.00269429 -0.000449778 0.0904518 0.0319925 -0.23208 
11364 15.994 -15.411 10.0235 4.00397 -0.000907416 0.00213933 0.000121395 1.65157 0.565842 -5.35516 
10346 1.008 6.11771 -1.22753 -26.5617 -0.00717768 0.002238 -0.00197621 0.267787 -7.82426 -3.76662 
10345 1.008 5.61591 -2.19134 -25.3423 -0.00364757 -0.0138175 -0.0131788 -3.22872 2.10275 1.84761 
10344 15.994 5.33198 -1.49936 -26.0061 -0.00417168 -0.00046443 0.000955124 2.95039 7.20753 0.69795 
12728 1.008 21.6361 -3.54378 -15.3553 0.00921981 -0.016266 0.00448281 -0.03194 0.680111 -0.0605042 
12727 1.008 23.1716 -3.16367 -15.7622 3.60525e-05 0.00644588 -0.00895191 -1.04055 0.277956 0.382832 
12726 15.994 22.2162 -3.12781 -16.0556 -0.00326326 -0.00593114 0.000281659 -5.4622 -3.72645 1.61044 
10498 1.008 0.856896 -17.375 23.1347 0.0144878 0.00892405 0.00678567 -4.77745 -1.55481 -2.06474 
10497 15.994 0.500633 -17.5789 24.0465 0.00575156 -0.00312718 0.000691472 3.61293 -7.34927 -8.74635 
10499 1.008 0.331004 -18.5611 24.1267 -0.00577696 -0.00262719 -0.0177573 -3.55907 1.33819 -0.744558 
13537 1.008 2.29623 13.9959 13.8715 -0.00394936 -0.0273328 0.0112582 -1.99651 1.4538 0.0438789 
13538 1.008 0.766458 13.4287 13.7961 -0.0182948 0.00995163 0.0218938 0.285588 2.52427 0.312257 
13536 15.994 1.33346 14.2212 14.021 0.00104381 0.00290722 -0.00208936 5.25741 -6.43966 -2.88671 
13584 15.994 22.4346 10.93 34.0059 0.00644874 -0.00388607 0.000161838 -5.50922 -0.716293 0.54905 
13585 1.008 22.4169 11.7373 34.5958 0.0149795 -0.00561208 0.00277466 -0.90004 -1.26912 1.35557 
13586 1.008 23.1455 11.0398 33.3112 0.00125094 -0.00501322 -0.00534255 1.94114 0.239078 2.62619 
ITEM: TIMESTEP
12000
ITEM: NUMBER OF ATOMS
21
ITEM: BOX BOUNDS pp pp pp
-26.1869 26.1869
-27.9859 27.9859
-38.2091 38.2091
ITEM: ATOMS id mass x y z vx vy vz fx fy fz 
12690 15.994 -19.5791 -27.5389 -6.01398 0.00365599 -0.00403758 -0.00122282 1.85326 -0.367849 1.98897 
12691 1.008 -18.7645 -27.5317 -5.43397 -0.0127554 -0.0196448 0.0220304 -2.02386 0.650405 -1.25466 
12692 1.008 -19.7456 27.5039 -6.34413 -0.00710766 -0.00160938 -0.00262781 -0.507942 0.528168 -0.207984 
11365 1.008 -16.2101 11.5024 3.58541 -0.00446802 -0.00601702 -0.00269798 0.166487 -0.283169 0.134547 
11366 1.008 -14.8122 11.9919 4.27374 -0.0122819 0.00813118 0.00313586 -0.160611 -0.585753 -0.0204627 
11364 15.994 -15.3574 11.1965 4.00888 -0.00269326 0.00260654 -2.75971e-05 0.735145 -4.6792 -1.80681 
10346 1.008 5.66794 -1.80491 -26.0611 0.00210583 0.0126112 0.0115191 -1.28147 1.31659 -5.77331 
10345 1.008 4.1878 -2.44451 -25.801 0.00694775 -0.010773 -0.0183386 2.5525 -0.769516 -2.64101 
10344 15.994 4.68958 -1.60482 -26.0087 -0.00133267 -0.00120088 0.000429788 -5.62347 4.23889 7.64937 
12728 1.008 21.3233 -3.83021 -15.4149 0.00340938 0.0103407 0.0050945 4.11323 -4.64809 1.04089 
12727 1.008 22.4589 -2.66921 -15.5881 0.0104911 0.00176265 -0.00612159 -0.0251392 -1.04875 1.52492 
12726 15.994 21.935 -3.37642 -16.0628 0.00396507 0.00243733 6.47313e-05 -3.27364 0.17402 8.87374 
10498 1.008 1.42793 -17.8253 23.0949 0.00861658 -0.00554269 0.00683896 -0.483875 6.22714 0.10939 
10497 15.994 1.115 -17.6719 24.0322 -0.0100182 0.00226202 -0.00064244 0.61203 6.63806 0.602112 
10499 1.008 0.718643 -18.5157 24.394 -0.00463211 0.00144965 0.00335467 6.31894 -3.08631 -1.57505 
13538 1.008 1.94119 13.9799 13.508 -0.00364414 -0.00728558 -0.0129003 -0.556021 0.322551 0.20696 
13537 1.008 0.308592 14.0169 13.5369 -0.00296497 0.00445969 0.0109954 0.495053 0.315809 0.412264 
13536 15.994 1.13917 14.2075 14.0602 0.00601858 -0.00480196 0.000120055 0.164602 0.889768 -0.553163 
13584 15.994 22.4408 10.4076 34.0059 2.41682e-05 0.000657413 0.000329459 -1.5273 -0.522814 8.95097 
13585 1.008 22.2403 11.1772 34.6121 -0.0101701 -0.00258208 0.00107019 -1.81578 0.773714 -1.48659 
13586 1.008 23.0798 10.7006 33.2947 -0.0129151 0.0128764 -0.00629773 3.0733 -2.82771 3.48621 
ITEM: TIMESTEP
13000
ITEM: NUMBER OF ATOMS
21
ITEM: BOX BOUNDS pp pp pp
-26.1072 26.1072
-27.9823 27.9823
-38.3249 38.3249
ITEM: ATOMS id mass x y z vx vy vz fx fy fz 
12690 15.994 -19.9807 -27.7675 -6.04514 0.00324169 -0.00115964 0.000121728 0.618221 -0.396018 0.0142249 
12692 1.008 -20.9752 -27.7052 -6.12879 0.00454949 0.00480136 -0.0110221 0.413456 0.0670071 0.26344 
12691 1.008 -19.6975 -27.4104 -5.15505 -0.00591398 -0.0162343 0.00909062 -0.5147 -0.288162 -0.776798 
11365 1.008 -14.7529 10.9596 3.11154 -0.00375676 0.00503748 0.000201703 0.159823 0.0511512 -0.0769834 
11366 1.008 -14.0333 10.31 4.42598 0.00303124 0.0135385 0.00070018 -0.0641462 0.117312 -0.138894 