created with groupy

11736 atoms
9048 bonds
6594 angles
3568 dihedrals
78 impropers

58 atom types
54 bond types
55 angle types
43 dihedral types
3 improper types

-20.000000 20.000000 xlo xhi
-20.000000 20.000000 ylo yhi
-56.517712 56.517712 zlo zhi

Masses

1 15.9994
2 15.9994
3 15.9994
4 15.9994
5 15.9994
6 14.0067
7 14.0067
8 14.0067
9 14.0067
10 14.0067
11 14.0067
12 12.0110
13 12.0110
14 13.0190
15 14.0270
16 15.0350
17 16.0430
18 14.0270
19 13.0190
20 1.0080
21 1.0080
22 999.0   # dummy, this type not in this system
23 32.0600
24 63.5460
25 63.5460
26 55.8470
27 65.3700
28 24.3050
29 40.0800
30 30.9738
31 39.9480
32 18.9984
33 35.4350
34 79.9040
35 15.0350
36 15.9994
37 22.9898
38 35.4350
39 12.0110
40 35.4350
41 1.0080
42 32.0600
43 15.0350
44 15.9994
45 12.0110
46 35.4350
47 18.9984
48 12.0110
49 14.0270
50 15.9994
51 12.0110
52 15.9994
53 14.0067
54 28.0800
55 999.0   # dummy, this type not in this system
56 999.0   # dummy, this type not in this system
57 15.9994
58 1.0080

Atoms

1 1 16 0.40000 21.43644 -14.18005 30.70608
2 1 16 0.40000 19.26201 -13.35139 30.24547
3 1 16 0.40000 20.86706 -13.54328 28.48639
4 1 8 -0.50000 20.35561 -14.17375 29.70508
5 1 15 0.30000 19.87283 -15.53437 29.45188
6 1 15 0.40000 19.21019 -16.86471 29.03840
7 1 3 -0.80000 18.51505 -17.77129 28.33373
8 1 30 1.70000 18.50539 -17.34989 26.72602
9 1 2 -0.80000 19.70396 -18.02720 26.10947
10 1 2 -0.80000 18.44418 -15.82864 26.74907
11 1 3 -0.70000 17.10423 -18.02029 26.15401
12 1 15 0.40000 16.59502 -17.59470 24.96308
13 1 14 0.30000 16.07571 -16.75233 23.87741
14 1 4 -0.70000 15.85568 -17.14631 22.45583
15 1 12 0.70000 14.54012 -17.22013 21.91489
16 1 1 -0.70000 13.55174 -17.32025 22.63664
17 1 15 0.00000 14.30110 -17.14836 20.35647
18 1 15 0.00000 13.72938 -17.04160 18.61385
19 1 15 0.00000 13.12284 -16.93144 16.86993
20 1 15 0.00000 12.53721 -16.83068 15.10975
21 1 15 0.00000 11.98459 -16.74694 13.33464
22 1 15 0.00000 11.46481 -16.68263 11.54886
23 1 15 0.00000 10.97563 -16.63965 9.75734
24 1 15 0.00000 10.51693 -16.61655 7.96749
25 1 15 0.00000 10.08299 -16.61737 6.18851
26 1 15 0.00000 9.67373 -16.64403 4.43201
27 1 15 0.00000 9.28985 -16.70038 2.71037
28 1 15 0.00000 8.93919 -16.78790 1.03998
29 1 15 0.00000 8.60901 -16.91520 -0.57188
30 1 15 0.00000 8.29017 -17.07861 -2.13380
31 1 15 0.00000 7.97329 -17.26620 -3.65535
32 1 15 0.00000 7.64115 -17.36933 -5.30758
33 1 16 0.00000 7.33756 -17.61719 -6.73881
34 1 15 0.50000 16.51837 -15.40935 24.13314
35 1 4 -0.70000 17.02624 -14.30358 24.69363
36 1 12 0.80000 17.35317 -13.24329 23.92919
37 1 1 -0.60000 17.72143 -12.15006 24.39310
38 1 15 0.00000 17.22688 -13.40220 22.51395
39 1 15 0.00000 17.08379 -13.69987 21.03162
40 1 15 0.00000 16.98367 -14.04272 19.55635
41 1 15 0.00000 16.90452 -14.36898 18.07532
42 1 15 0.00000 16.79154 -14.66035 16.58741
43 1 15 0.00000 16.60787 -14.92063 15.09934
44 1 15 0.00000 16.35148 -15.15271 13.61597
45 1 15 0.00000 16.04222 -15.34679 12.13610
46 1 15 0.00000 15.69862 -15.48290 10.65583
47 1 15 0.00000 15.32433 -15.54602 9.17817
48 1 15 0.00000 14.90607 -15.54378 7.70954
49 1 15 0.00000 14.42565 -15.50370 6.25900
50 1 15 0.00000 13.88037 -15.45968 4.83165
51 1 15 0.00000 13.28831 -15.43080 3.42159
52 1 15 0.00000 12.67602 -15.41316 2.01706
53 1 15 0.00000 12.15096 -15.35791 0.58418
54 1 16 0.00000 11.47166 -15.36664 -0.79753
55 2 16 0.40000 22.22087 19.25118 28.81447
56 2 16 0.40000 20.57668 20.83960 28.18158
57 2 16 0.40000 21.90287 19.76036 26.51310
58 2 8 -0.50000 21.21172 19.57161 27.79019
59 2 15 0.30000 20.19873 18.51531 27.70926
60 2 15 0.40000 19.03018 17.53945 27.46017
61 2 3 -0.80000 17.99997 16.91867 26.86436
62 2 30 1.70000 18.11901 17.08390 25.21484
63 2 2 -0.80000 18.90758 15.89227 24.73150
64 2 2 -0.80000 18.69780 18.48007 25.02993
65 2 3 -0.70000 16.54963 16.98750 24.69748
66 2 15 0.40000 16.22888 17.42103 23.44531
67 2 14 0.30000 16.07571 18.24767 22.24069
68 2 4 -0.70000 15.66945 17.79274 20.87961
69 2 12 0.70000 14.42730 18.20120 20.31482
70 2 1 -0.70000 13.50897 18.62062 21.01381
71 2 15 0.00000 14.19375 18.15434 18.75463
72 2 15 0.00000 13.66701 18.25261 16.99739
73 2 15 0.00000 13.11001 18.36827 15.23737
74 2 15 0.00000 12.56760 18.46456 13.46315
75 2 15 0.00000 12.04766 18.52978 11.67742
76 2 15 0.00000 11.54915 18.56241 9.88473
77 2 15 0.00000 11.06938 18.56233 8.09015
78 2 15 0.00000 10.60907 18.53192 6.30082
79 2 15 0.00000 10.16162 18.47116 4.52623
80 2 15 0.00000 9.72651 18.37993 2.77813
81 2 15 0.00000 9.30311 18.25616 1.06934
82 2 15 0.00000 8.89844 18.09747 -0.58351
83 2 15 0.00000 8.49754 17.90240 -2.17239
84 2 15 0.00000 8.09339 17.67690 -3.70659
85 2 15 0.00000 7.68214 17.43433 -5.19747
86 2 15 0.00000 7.28832 17.25634 -6.82966
87 2 16 0.00000 6.86673 16.96627 -8.22256
88 2 15 0.50000 17.04497 19.30518 22.32531
89 2 4 -0.70000 17.98372 20.16352 22.74580
90 2 12 0.80000 18.69976 20.87702 21.85493
91 2 1 -0.60000 19.50356 21.76919 22.17732
92 2 15 0.00000 18.47679 20.59521 20.47110
93 2 15 0.00000 18.17876 20.18659 19.03912
94 2 15 0.00000 17.90117 19.72040 17.62151
95 2 15 0.00000 17.64935 19.25961 16.19659
96 2 15 0.00000 17.38114 18.84335 14.75911
97 2 15 0.00000 17.06164 18.48447 13.31517
98 2 15 0.00000 16.68796 18.18186 11.86991
99 2 15 0.00000 16.28217 17.93591 10.42141
100 2 15 0.00000 15.86931 17.75632 8.96364
101 2 15 0.00000 15.45906 17.65550 7.49767
102 2 15 0.00000 15.03634 17.63296 6.03049
103 2 15 0.00000 14.57346 17.67279 4.57425
104 2 15 0.00000 14.05396 17.74631 3.13852
105 2 15 0.00000 13.48617 17.82806 1.72058
106 2 15 0.00000 12.89548 17.90888 0.30902
107 2 15 0.00000 12.39887 17.98333 -1.13310
108 2 16 0.00000 11.73698 18.07144 -2.52047
109 3 16 0.40000 16.67050 -14.49728 29.10741
110 3 16 0.40000 14.58572 -13.47708 28.61767
111 3 16 0.40000 16.16199 -13.87850 26.86794
112 3 8 -0.50000 15.59383 -14.41794 28.10506
113 3 15 0.30000 14.98132 -15.73276 27.89401
114 3 15 0.40000 14.19249 -17.00510 27.52154
115 3 3 -0.80000 13.41184 -17.86190 26.84464
116 3 30 1.70000 13.44054 -17.49228 25.22448
117 3 2 -0.80000 14.56704 -18.30138 24.63134
118 3 2 -0.80000 13.52679 -15.97227 25.19961
119 3 3 -0.70000 11.98024 -18.04165 24.67168
120 3 15 0.40000 11.51276 -17.60644 23.46718
121 3 14 0.30000 11.07571 -16.75233 22.35480
122 3 4 -0.70000 10.81644 -17.16766 20.94596
123 3 12 0.70000 9.49908 -17.13085 20.40560
124 3 1 -0.70000 8.50675 -17.11218 21.12864
125 3 15 0.00000 9.26575 -17.08532 18.84534
126 3 15 0.00000 8.70439 -16.97858 17.09936
127 3 15 0.00000 8.10869 -16.86513 15.35191
128 3 15 0.00000 7.53287 -16.76357 13.58854
129 3 15 0.00000 6.98823 -16.68259 11.81084
130 3 15 0.00000 6.47439 -16.62446 10.02313
131 3 15 0.00000 5.98893 -16.59070 8.23040
132 3 15 0.00000 5.53189 -16.57960 6.44001
133 3 15 0.00000 5.09719 -16.59435 4.66128
134 3 15 0.00000 4.68460 -16.63648 2.90586
135 3 15 0.00000 4.29444 -16.70952 1.18626
136 3 15 0.00000 3.93442 -16.81516 -0.48109
137 3 15 0.00000 3.59102 -16.96053 -2.08865
138 3 15 0.00000 3.25549 -17.14134 -3.64515
139 3 15 0.00000 2.91963 -17.34512 -5.16053
140 3 15 0.00000 2.57655 -17.46752 -6.80921
141 3 16 0.00000 2.24824 -17.72971 -8.23241
142 3 15 0.50000 11.64658 -15.45109 22.56887
143 3 4 -0.70000 12.25988 -14.38256 23.09510
144 3 12 0.80000 12.68666 -13.38342 22.29822
145 3 1 -0.60000 13.15963 -12.31689 22.72810
146 3 15 0.00000 12.54344 -13.57376 20.88848
147 3 15 0.00000 12.36996 -13.90264 19.41602
148 3 15 0.00000 12.23491 -14.28038 17.95210
149 3 15 0.00000 12.12231 -14.64384 16.48194
150 3 15 0.00000 11.97942 -14.96953 15.00375
151 3 15 0.00000 11.76916 -15.25746 13.52431
152 3 15 0.00000 11.48927 -15.51015 12.04858
153 3 15 0.00000 11.16043 -15.71983 10.57508
154 3 15 0.00000 10.80302 -15.86852 9.09929
155 3 15 0.00000 10.42213 -15.94154 7.62378
156 3 15 0.00000 10.00381 -15.94502 6.15516
157 3 15 0.00000 9.52732 -15.90426 4.70335
158 3 15 0.00000 8.98667 -15.85259 3.27449
159 3 15 0.00000 8.39803 -15.81091 1.86332
160 3 15 0.00000 7.78818 -15.77827 0.45799
161 3 15 0.00000 7.26874 -15.71756 -0.97671
162 3 16 0.00000 6.58967 -15.70396 -2.35850
163 4 16 0.40000 20.52967 -15.12956 28.94535
164 4 16 0.40000 21.27073 -13.37013 27.53744
165 4 16 0.40000 20.39694 -15.37870 26.58378
166 4 8 -0.50000 20.25279 -14.42219 27.68313
167 4 15 0.30000 18.91733 -13.81850 27.70698
168 4 15 0.40000 17.56536 -13.10009 27.51749
169 4 3 -0.80000 16.51259 -12.51097 26.92901
170 4 30 1.70000 16.35650 -13.06236 25.36889
171 4 2 -0.80000 15.44252 -14.26037 25.43874
172 4 2 -0.80000 17.79415 -13.25306 24.90492
173 4 3 -0.70000 15.61037 -11.81048 24.58404
174 4 15 0.40000 15.62931 -11.76723 23.22150
175 4 14 0.30000 16.07571 -11.75233 21.82206
176 4 4 -0.70000 15.23084 -11.91304 20.60350
177 4 12 0.70000 15.04991 -10.83200 19.69389
178 4 1 -0.70000 15.25926 -9.66863 20.02647
179 4 15 0.00000 14.59581 -11.09469 18.20536
180 4 15 0.00000 14.13000 -11.10743 16.42833
181 4 15 0.00000 13.66890 -11.08849 14.63715
182 4 15 0.00000 13.19222 -11.09253 12.84157
183 4 15 0.00000 12.69261 -11.12921 11.04923
184 4 15 0.00000 12.16928 -11.19667 9.26461
185 4 15 0.00000 11.62225 -11.29101 7.49189
186 4 15 0.00000 11.05545 -11.41007 5.73715
187 4 15 0.00000 10.46856 -11.54502 4.00788
188 4 15 0.00000 9.86377 -11.69194 2.31491
189 4 15 0.00000 9.24168 -11.84704 0.67067
190 4 15 0.00000 8.60609 -12.01246 -0.90715
191 4 15 0.00000 7.95213 -12.17258 -2.41380
192 4 15 0.00000 7.28082 -12.32206 -3.86120
193 4 15 0.00000 6.60059 -12.45703 -5.26469
194 4 15 0.00000 5.95554 -12.63166 -6.81525
195 4 16 0.00000 5.24905 -12.74146 -8.11557
196 4 15 0.50000 17.39777 -12.31467 21.79205
197 4 4 -0.70000 18.59833 -12.80553 22.12748
198 4 12 0.80000 19.31174 -13.52274 21.23746
199 4 1 -0.60000 20.47525 -13.91002 21.44297
200 4 15 0.00000 18.68416 -13.80883 19.98510
201 4 15 0.00000 17.90441 -14.07632 18.70963
202 4 15 0.00000 17.08231 -14.37439 17.46895
203 4 15 0.00000 16.27260 -14.69665 16.22529
204 4 15 0.00000 15.49515 -14.99514 14.95328
205 4 15 0.00000 14.75076 -15.23260 13.64739
206 4 15 0.00000 14.03852 -15.40520 12.31214
207 4 15 0.00000 13.36606 -15.53352 10.95028
208 4 15 0.00000 12.74976 -15.63949 9.55862
209 4 15 0.00000 12.20452 -15.72813 8.13651
210 4 15 0.00000 11.72611 -15.78376 6.68742
211 4 15 0.00000 11.29290 -15.78194 5.22154
212 4 15 0.00000 10.87497 -15.71290 3.75280
213 4 15 0.00000 10.45142 -15.59219 2.28800
214 4 15 0.00000 10.02036 -15.44895 0.82457
215 4 15 0.00000 9.60994 -15.40244 -0.64555
216 4 16 0.00000 9.16575 -15.18500 -2.10365
217 5 16 0.40000 11.39437 0.62487 28.61835
218 5 16 0.40000 11.59102 2.64301 27.38733
219 5 16 0.40000 11.30607 0.56572 26.24234
220 5 8 -0.50000 10.91277 1.33802 27.42265
221 5 15 0.30000 9.46175 1.53615 27.48404
222 5 15 0.40000 7.95976 1.85872 27.34329
223 5 3 -0.80000 6.77598 2.17864 26.79738
224 5 30 1.70000 6.76101 1.75085 25.19141
225 5 2 -0.80000 6.22262 0.34271 25.13922
226 5 2 -0.80000 8.18789 2.01627 24.73094
227 5 3 -0.70000 5.68209 2.80815 24.51469
228 5 15 0.40000 5.67010 2.97955 23.16220
229 5 14 0.30000 6.07571 3.24767 21.77601
230 5 4 -0.70000 5.29435 2.96768 20.53682
231 5 12 0.70000 4.80417 4.03249 19.72769
232 5 1 -0.70000 4.68162 5.17216 20.16812
233 5 15 0.00000 4.42289 3.78992 18.21550
234 5 15 0.00000 3.95614 3.80919 16.43878
235 5 15 0.00000 3.48479 3.86134 14.65093
236 5 15 0.00000 3.00492 3.88756 12.85638
237 5 15 0.00000 2.51228 3.87584 11.06178
238 5 15 0.00000 2.00566 3.82733 9.27173
239 5 15 0.00000 1.48404 3.74540 7.49075
240 5 15 0.00000 0.95065 3.63262 5.72516
241 5 15 0.00000 0.40280 3.49668 3.98320
242 5 15 0.00000 -0.15837 3.34094 2.27606
243 5 15 0.00000 -0.73319 3.16805 0.61646
244 5 15 0.00000 -1.31719 2.97542 -0.97812
245 5 15 0.00000 -1.91936 2.77616 -2.50160
246 5 15 0.00000 -2.54039 2.57675 -3.96534
247 5 15 0.00000 -3.17348 2.38467 -5.38414
248 5 15 0.00000 -3.76359 2.17809 -6.95255
249 5 16 0.00000 -4.42761 1.99319 -8.26667
250 5 15 0.50000 7.50213 3.08582 21.71210
251 5 4 -0.70000 8.79668 2.92456 22.01698
252 5 12 0.80000 9.67145 2.52205 21.07454
253 5 1 -0.60000 10.89955 2.46117 21.25906
254 5 15 0.00000 9.13345 2.18663 19.79307
255 5 15 0.00000 8.44390 1.82821 18.48829
256 5 15 0.00000 7.72280 1.42547 17.21480
257 5 15 0.00000 7.02036 1.00339 15.93629
258 5 15 0.00000 6.34179 0.61570 14.63215
259 5 15 0.00000 5.67732 0.29871 13.30029
260 5 15 0.00000 5.02500 0.05542 11.94557
261 5 15 0.00000 4.39804 -0.13194 10.56893
262 5 15 0.00000 3.81826 -0.27939 9.16540
263 5 15 0.00000 3.30137 -0.38749 7.73407
264 5 15 0.00000 2.83895 -0.44275 6.27979
265 5 15 0.00000 2.40348 -0.42887 4.81465
266 5 15 0.00000 1.96369 -0.34623 3.35301
267 5 15 0.00000 1.50400 -0.21618 1.89995
268 5 15 0.00000 1.03078 -0.06685 0.45023
269 5 15 0.00000 0.60452 -0.00348 -1.01475
270 5 16 0.00000 0.09786 0.21254 -2.45256
271 6 16 0.40000 -10.57923 -12.90641 29.56137
272 6 16 0.40000 -12.86284 -13.38744 29.13624
273 6 16 0.40000 -11.53627 -12.30887 27.46764
274 6 8 -0.50000 -11.52924 -13.32928 28.51787
275 6 15 0.30000 -11.17020 -14.64917 27.99114
276 6 15 0.40000 -10.98542 -16.01711 27.30233
277 6 3 -0.80000 -11.08420 -17.00944 26.40388
278 6 30 1.70000 -11.42371 -16.38053 24.90335
279 6 2 -0.80000 -10.09036 -16.13237 24.24300
280 6 2 -0.80000 -12.33427 -15.19733 25.20236
281 6 3 -0.70000 -12.22902 -17.60739 24.13773
282 6 15 0.40000 -12.95753 -17.33473 23.01805
283 6 14 0.30000 -13.92429 -16.75233 22.07778
284 6 4 -0.70000 -13.96421 -16.93185 20.59767
285 6 12 0.70000 -15.03523 -17.63668 19.97727
286 6 1 -0.70000 -15.74940 -18.40971 20.60993
287 6 15 0.00000 -15.36244 -17.42762 18.44752
288 6 15 0.00000 -15.99365 -17.34498 16.72422
289 6 15 0.00000 -16.65548 -17.27907 14.99827
290 6 15 0.00000 -17.29574 -17.20590 13.25584
291 6 15 0.00000 -17.90008 -17.12495 11.49753
292 6 15 0.00000 -18.46704 -17.03904 9.72708
293 6 15 0.00000 -18.99708 -16.95189 7.94884
294 6 15 0.00000 -19.49072 -16.86375 6.17034
295 6 15 0.00000 -19.94983 -16.78281 4.39954
296 6 15 0.00000 -20.37270 -16.71278 2.64746
297 6 15 0.00000 -20.75589 -16.65865 0.92560
298 6 15 0.00000 -21.09115 -16.62017 -0.74980
299 6 15 0.00000 -21.38365 -16.61283 -2.37390
300 6 15 0.00000 -21.64350 -16.63725 -3.95499
301 6 15 0.00000 -21.88572 -16.68742 -5.50080
302 6 15 0.00000 -22.19585 -16.65434 -7.16017
303 6 16 0.00000 -22.38778 -16.76202 -8.62769
304 6 15 0.50000 -14.30619 -15.46980 22.60142
305 6 4 -0.70000 -14.48252 -14.39698 23.38422
306 6 12 0.80000 -14.85842 -13.21936 22.84815
307 6 1 -0.60000 -15.14801 -12.21791 23.52580
308 6 15 0.00000 -14.95403 -13.15812 21.42294
309 6 15 0.00000 -14.98876 -13.20552 19.90539
310 6 15 0.00000 -14.96215 -13.26616 18.38895
311 6 15 0.00000 -14.92804 -13.30056 16.87112
312 6 15 0.00000 -14.94190 -13.32481 15.35100
313 6 15 0.00000 -15.03149 -13.36410 13.83236
314 6 15 0.00000 -15.19657 -13.42277 12.31932
315 6 15 0.00000 -15.42642 -13.48152 10.81366
316 6 15 0.00000 -15.71737 -13.51306 9.31628
317 6 15 0.00000 -16.07474 -13.50383 7.83312
318 6 15 0.00000 -16.50474 -13.46866 6.36831
319 6 15 0.00000 -17.00624 -13.44162 4.92462
320 6 15 0.00000 -17.56195 -13.45241 3.50065
321 6 15 0.00000 -18.14655 -13.50505 2.08817
322 6 15 0.00000 -18.74110 -13.57919 0.67787
323 6 15 0.00000 -19.28687 -13.56850 -0.74828
324 6 16 0.00000 -19.92026 -13.70598 -2.14491
325 7 16 0.40000 2.32428 18.65518 28.61367
326 7 16 0.40000 0.92689 20.43445 27.90058
327 7 16 0.40000 2.07588 19.09573 26.28968
328 7 8 -0.50000 1.36903 19.07037 27.57187
329 7 15 0.30000 0.21267 18.17030 27.53752
330 7 15 0.40000 -1.08645 17.36444 27.33086
331 7 3 -0.80000 -2.19818 16.87288 26.76153
332 7 30 1.70000 -2.06206 16.94072 25.10647
333 7 2 -0.80000 -1.45721 15.62538 24.68282
334 7 2 -0.80000 -1.28666 18.22732 24.85768
335 7 3 -0.70000 -3.63052 17.04964 24.58881
336 7 15 0.40000 -3.88902 17.46550 23.31642
337 7 14 0.30000 -3.92429 18.24767 22.07348
338 7 4 -0.70000 -4.39721 17.79287 20.73407
339 7 12 0.70000 -5.56855 18.35075 20.14626
340 7 1 -0.70000 -6.41354 18.93212 20.82142
341 7 15 0.00000 -5.81185 18.26461 18.58924
342 7 15 0.00000 -6.32474 18.35528 16.82751
343 7 15 0.00000 -6.86505 18.46741 15.06206
344 7 15 0.00000 -7.39379 18.55759 13.28340
345 7 15 0.00000 -7.90487 18.61326 11.49479
346 7 15 0.00000 -8.39953 18.63328 9.70085
347 7 15 0.00000 -8.88041 18.61814 7.90663
348 7 15 0.00000 -9.34644 18.57045 6.11916
349 7 15 0.00000 -9.80412 18.49159 4.34790
350 7 15 0.00000 -10.25395 18.38208 2.60458
351 7 15 0.00000 -10.69679 18.24056 0.90210
352 7 15 0.00000 -11.12600 18.06445 -0.74278
353 7 15 0.00000 -11.55655 17.85488 -2.32202
354 7 15 0.00000 -11.99457 17.61830 -3.84522
355 7 15 0.00000 -12.44194 17.36793 -5.32437
356 7 15 0.00000 -12.86314 17.17215 -6.94766
357 7 16 0.00000 -13.32733 16.88099 -8.32671
358 7 15 0.50000 -2.81100 19.15548 22.11131
359 7 4 -0.70000 -1.75576 19.88681 22.49395
360 7 12 0.80000 -0.94649 20.44538 21.57278
361 7 1 -0.60000 -0.02016 21.22516 21.85537
362 7 15 0.00000 -1.21294 20.13388 20.20308
363 7 15 0.00000 -1.57230 19.70571 18.79102
364 7 15 0.00000 -1.91977 19.21836 17.39612
365 7 15 0.00000 -2.24097 18.73224 15.99375
366 7 15 0.00000 -2.57196 18.29192 14.57667
367 7 15 0.00000 -2.94535 17.91547 13.15024
368 7 15 0.00000 -3.36415 17.60246 11.71964
369 7 15 0.00000 -3.80647 17.34996 10.28301
370 7 15 0.00000 -4.24614 17.16364 8.83395
371 7 15 0.00000 -4.67179 17.05438 7.37298
372 7 15 0.00000 -5.09836 17.02423 5.90705
373 7 15 0.00000 -5.55555 17.06210 4.44896
374 7 15 0.00000 -6.06377 17.14247 3.00956
375 7 15 0.00000 -6.61851 17.23885 1.58738
376 7 15 0.00000 -7.19602 17.33796 0.17154
377 7 15 0.00000 -7.68148 17.41562 -1.27420
378 7 16 0.00000 -8.32828 17.53345 -2.66647
379 8 16 0.40000 -14.58700 20.33460 32.56783
380 8 16 0.40000 -15.13716 18.24954 31.57947
381 8 16 0.40000 -15.91275 20.28288 30.59390
382 8 8 -0.50000 -14.78665 19.64670 31.28052
383 8 15 0.30000 -13.56397 19.68811 30.47318
384 8 15 0.40000 -12.39865 19.60450 29.46577
385 8 3 -0.80000 -11.72348 19.45113 28.31585
386 8 30 1.70000 -12.71756 19.79119 27.02800
387 8 2 -0.80000 -12.54604 21.26294 26.74516
388 8 2 -0.80000 -14.07933 19.27595 27.47363
389 8 3 -0.70000 -12.08354 18.88736 25.79472
390 8 15 0.40000 -12.83566 18.64965 24.68271
391 8 14 0.30000 -13.92429 18.24767 23.78204
392 8 4 -0.70000 -14.07051 18.58455 22.33647
393 8 12 0.70000 -13.98118 17.57167 21.33905
394 8 1 -0.70000 -13.44325 16.49116 21.56487
395 8 15 0.00000 -14.59916 17.79303 19.90377
396 8 15 0.00000 -15.26134 17.75625 18.19054
397 8 15 0.00000 -15.92106 17.68722 16.46390
398 8 15 0.00000 -16.58208 17.64477 14.72821
399 8 15 0.00000 -17.23907 17.64177 12.98702
400 8 15 0.00000 -17.88821 17.67751 11.24326
401 8 15 0.00000 -18.52547 17.74909 9.49986
402 8 15 0.00000 -19.14936 17.85375 7.76368
403 8 15 0.00000 -19.75168 17.98481 6.03941
404 8 15 0.00000 -20.32626 18.13935 4.33663
405 8 15 0.00000 -20.86499 18.31548 2.66530
406 8 15 0.00000 -21.36165 18.51593 1.04235
407 8 15 0.00000 -21.80342 18.72956 -0.53325
408 8 15 0.00000 -22.19534 18.94950 -2.07143
409 8 15 0.00000 -22.55026 19.16650 -3.58062
410 8 15 0.00000 -23.02903 19.38306 -5.18520
411 8 16 0.00000 -23.29708 19.60343 -6.62798
412 8 15 0.50000 -15.12303 18.17432 24.57109
413 8 4 -0.70000 -16.00149 18.14090 25.58202
414 8 12 0.80000 -17.31252 18.34760 25.34979
415 8 1 -0.60000 -18.19217 18.21964 26.21917
416 8 15 0.00000 -17.68604 18.69775 24.01488
417 8 15 0.00000 -17.95625 19.09374 22.57385
418 8 15 0.00000 -18.19022 19.54012 21.14207
419 8 15 0.00000 -18.44507 20.00230 19.71813
420 8 15 0.00000 -18.72836 20.42540 18.28556
421 8 15 0.00000 -19.02766 20.77511 16.83505
422 8 15 0.00000 -19.33812 21.04902 15.36925
423 8 15 0.00000 -19.67256 21.26258 13.89757
424 8 15 0.00000 -20.05382 21.42783 12.42954
425 8 15 0.00000 -20.49503 21.54270 10.97362
426 8 15 0.00000 -20.98449 21.59554 9.52812
427 8 15 0.00000 -21.49061 21.57534 8.08594
428 8 15 0.00000 -21.98019 21.48823 6.64048
429 8 15 0.00000 -22.44129 21.35806 5.18787
430 8 15 0.00000 -22.88657 21.21123 3.72907
431 8 15 0.00000 -23.39197 21.14077 2.28981
432 8 16 0.00000 -23.79296 20.93421 0.81767
433 9 16 0.40000 -3.85064 5.36158 30.69683
434 9 16 0.40000 -3.47722 7.31796 29.40837
435 9 16 0.40000 -3.94688 5.24200 28.32340
436 9 8 -0.50000 -4.26857 6.07988 29.48044
437 9 15 0.30000 -5.69620 6.40770 29.53423
438 9 15 0.40000 -7.16381 6.85812 29.38232
439 9 3 -0.80000 -8.31522 7.26596 28.82589
440 9 30 1.70000 -8.37017 6.79506 27.23290
441 9 2 -0.80000 -9.03147 5.43934 27.22066
442 9 2 -0.80000 -6.92595 6.91939 26.76680
443 9 3 -0.70000 -9.35185 7.92399 26.52459
444 9 15 0.40000 -9.35032 8.05669 25.16771
445 9 14 0.30000 -8.92429 8.24767 23.77489
446 9 4 -0.70000 -9.72901 8.00252 22.54328
447 9 12 0.70000 -10.12378 9.08285 21.70315
448 9 1 -0.70000 -10.14413 10.24113 22.11037
449 9 15 0.00000 -10.52703 8.83157 20.19810
450 9 15 0.00000 -10.99250 8.84094 18.42096
451 9 15 0.00000 -11.45965 8.88314 16.63175
452 9 15 0.00000 -11.93761 8.90009 14.83658
453 9 15 0.00000 -12.43164 8.88039 13.04243
454 9 15 0.00000 -12.94286 8.82544 11.25387
455 9 15 0.00000 -13.47199 8.73880 9.47533
456 9 15 0.00000 -14.01554 8.62294 7.71305
457 9 15 0.00000 -14.57553 8.48598 5.97503
458 9 15 0.00000 -15.15050 8.33149 4.27237
459 9 15 0.00000 -15.74052 8.16252 2.61771
460 9 15 0.00000 -16.34135 7.97657 1.02860
461 9 15 0.00000 -16.96078 7.78770 -0.48927
462 9 15 0.00000 -17.59894 7.60206 -1.94744
463 9 15 0.00000 -18.24840 7.42610 -3.36092
464 9 15 0.00000 -18.85653 7.22756 -4.92348
465 9 16 0.00000 -19.53603 7.06451 -6.23258
466 9 15 0.50000 -7.51794 7.95808 23.71749
467 9 4 -0.70000 -6.24243 7.69142 24.02856
468 9 12 0.80000 -5.40804 7.18584 23.09924
469 9 1 -0.60000 -4.18996 7.02155 23.28702
470 9 15 0.00000 -5.97534 6.86268 21.82729
471 9 15 0.00000 -6.69565 6.52940 20.53251
472 9 15 0.00000 -7.45129 6.15569 19.27023
473 9 15 0.00000 -8.19005 5.76093 18.00352
474 9 15 0.00000 -8.90202 5.39755 16.71024
475 9 15 0.00000 -9.59372 5.10251 15.38723
476 9 15 0.00000 -10.26679 4.87911 14.03924
477 9 15 0.00000 -10.90966 4.70852 12.66778
478 9 15 0.00000 -11.50204 4.57269 11.26834
479 9 15 0.00000 -12.02832 4.46967 9.84007
480 9 15 0.00000 -12.49569 4.41375 8.38739
481 9 15 0.00000 -12.93009 4.42396 6.92190
482 9 15 0.00000 -13.36268 4.50313 5.45793
483 9 15 0.00000 -13.81088 4.63151 4.00113
484 9 15 0.00000 -14.27084 4.78038 2.54710
485 9 15 0.00000 -14.69167 4.83906 1.08036
486 9 16 0.00000 -15.17900 5.05764 -0.36373
487 10 16 0.40000 -18.07159 -3.22007 32.09338
488 10 16 0.40000 -19.63184 -4.88043 31.43321
489 10 16 0.40000 -19.33102 -2.92242 30.09790
490 10 8 -0.50000 -18.64410 -3.91471 30.92722
491 10 15 0.30000 -17.60068 -4.62082 30.17812
492 10 15 0.40000 -16.67805 -5.43715 29.24956
493 10 3 -0.80000 -16.22065 -6.09128 28.17040
494 10 30 1.70000 -16.96746 -5.51446 26.80221
495 10 2 -0.80000 -16.09667 -4.39329 26.29216
496 10 2 -0.80000 -18.38362 -5.20090 27.26551
497 10 3 -0.70000 -16.92397 -6.80033 25.76080
498 10 15 0.40000 -17.74214 -6.80755 24.67026
499 10 14 0.30000 -18.92429 -6.75233 23.79997
500 10 4 -0.70000 -18.94588 -6.62707 22.31391
501 10 12 0.70000 -19.41787 -7.69558 21.49887
502 10 1 -0.70000 -19.48189 -8.84718 21.92028
503 10 15 0.00000 -19.90492 -7.43147 20.02104
504 10 15 0.00000 -20.57126 -7.41010 18.30917
505 10 15 0.00000 -21.25215 -7.41958 16.58941
506 10 15 0.00000 -21.92129 -7.40725 14.85636
507 10 15 0.00000 -22.56750 -7.36426 13.11166
508 10 15 0.00000 -23.18768 -7.29263 11.35850
509 10 15 0.00000 -23.77968 -7.19636 9.60039
510 10 15 0.00000 -24.34327 -7.07743 7.84461
511 10 15 0.00000 -24.87449 -6.94488 6.09725
512 10 15 0.00000 -25.36905 -6.80270 4.36846
513 10 15 0.00000 -25.82044 -6.65495 2.66876
514 10 15 0.00000 -26.22116 -6.49964 1.01463
515 10 15 0.00000 -26.56573 -6.35284 -0.59255
516 10 15 0.00000 -26.86237 -6.21949 -2.16168
517 10 15 0.00000 -27.12719 -6.10241 -3.70015
518 10 15 0.00000 -27.50358 -5.93935 -5.33800
519 10 16 0.00000 -27.68865 -5.85199 -6.80774
520 10 15 0.50000 -19.96374 -6.08833 24.53726
521 10 4 -0.70000 -20.69639 -5.51424 25.50082
522 10 12 0.80000 -21.73788 -4.72149 25.18101
523 10 1 -0.60000 -22.52496 -4.25023 26.02031
524 10 15 0.00000 -21.94471 -4.45351 23.79194
525 10 15 0.00000 -22.04389 -4.21532 22.29533
526 10 15 0.00000 -22.08614 -3.95082 20.80127
527 10 15 0.00000 -22.13825 -3.66118 19.31145
528 10 15 0.00000 -22.23484 -3.39200 17.81822
529 10 15 0.00000 -22.38271 -3.18022 16.31851
530 10 15 0.00000 -22.57876 -3.02985 14.81553
531 10 15 0.00000 -22.82593 -2.91983 13.31549
532 10 15 0.00000 -23.13759 -2.82698 11.82484
533 10 15 0.00000 -23.52573 -2.74510 10.35169
534 10 15 0.00000 -23.98615 -2.69025 8.89675
535 10 15 0.00000 -24.49730 -2.68871 7.45620
536 10 15 0.00000 -25.02768 -2.75291 6.02400
537 10 15 0.00000 -25.55524 -2.86913 4.59299
538 10 15 0.00000 -26.07769 -3.00844 3.15926
539 10 15 0.00000 -26.61318 -3.04957 1.72977
540 10 16 0.00000 -27.12769 -3.26399 0.29452
541 11 16 0.40000 11.19196 -3.90859 29.52102
542 11 16 0.40000 8.95112 -3.26604 29.08199
543 11 16 0.40000 10.56460 -3.26101 27.32017
544 11 8 -0.50000 10.11364 -3.97038 28.51921
545 11 15 0.30000 9.75504 -5.36096 28.22565
546 11 15 0.40000 9.21439 -6.73291 27.77254
547 11 3 -0.80000 8.60280 -7.67741 27.04072
548 11 30 1.70000 8.55310 -7.21172 25.44602
549 11 2 -0.80000 9.80699 -7.75997 24.81149
550 11 2 -0.80000 8.35514 -5.70350 25.51350
551 11 3 -0.70000 7.21727 -7.98858 24.85278
552 11 15 0.40000 6.67022 -7.57591 23.67415
553 11 14 0.30000 6.07571 -6.75233 22.61292
554 11 4 -0.70000 5.89018 -7.12275 21.18012
555 11 12 0.70000 4.58591 -7.29891 20.63551
556 11 1 -0.70000 3.61152 -7.50874 21.35272
557 11 15 0.00000 4.33934 -7.20339 19.07955
558 11 15 0.00000 3.75803 -7.09760 17.34005
559 11 15 0.00000 3.14173 -6.99153 15.59930
560 11 15 0.00000 2.54707 -6.89246 13.84205
561 11 15 0.00000 1.98681 -6.80692 12.06942
562 11 15 0.00000 1.46099 -6.73745 10.28560
563 11 15 0.00000 0.96757 -6.68630 8.49547
564 11 15 0.00000 0.50628 -6.65223 6.70645
565 11 15 0.00000 0.07183 -6.64007 4.92764
566 11 15 0.00000 -0.33568 -6.65206 3.17057
567 11 15 0.00000 -0.71521 -6.69235 1.44752
568 11 15 0.00000 -1.05876 -6.76217 -0.22518
569 11 15 0.00000 -1.37826 -6.87147 -1.84051
570 11 15 0.00000 -1.68315 -7.01715 -3.40697
571 11 15 0.00000 -1.98385 -7.18790 -4.93377
572 11 15 0.00000 -2.30754 -7.27214 -6.58875
573 11 16 0.00000 -2.58945 -7.50434 -8.02702
574 11 15 0.50000 6.39593 -5.38300 22.90843
575 11 4 -0.70000 6.80288 -4.25286 23.50171
576 11 12 0.80000 7.03195 -3.14551 22.76907
577 11 1 -0.60000 7.30085 -2.03760 23.26526
578 11 15 0.00000 6.91863 -3.27366 21.34961
579 11 15 0.00000 6.80097 -3.53950 19.85902
580 11 15 0.00000 6.73020 -3.84664 18.37421
581 11 15 0.00000 6.67880 -4.13522 16.88417
582 11 15 0.00000 6.59056 -4.39191 15.38822
583 11 15 0.00000 6.42911 -4.62401 13.89293
584 11 15 0.00000 6.19271 -4.83472 12.40306
585 11 15 0.00000 5.90024 -5.01248 10.91774
586 11 15 0.00000 5.56834 -5.13560 9.43367
587 11 15 0.00000 5.19930 -5.18890 7.95430
588 11 15 0.00000 4.78060 -5.18137 6.48581
589 11 15 0.00000 4.29661 -5.14228 5.03644
590 11 15 0.00000 3.74770 -5.10581 3.61026
591 11 15 0.00000 3.15358 -5.08912 2.20087
592 11 15 0.00000 2.54033 -5.08560 0.79665
593 11 15 0.00000 2.01053 -5.03596 -0.63469
594 11 16 0.00000 1.33295 -5.06540 -2.01696
595 12 16 0.40000 -0.84592 -15.65101 29.21810
596 12 16 0.40000 0.45271 -14.46130 27.62903
597 12 16 0.40000 -1.11291 -16.11204 26.90016
598 12 8 -0.50000 -0.87465 -15.04589 27.87526
599 12 15 0.30000 -1.89815 -13.99951 27.79775
600 12 15 0.40000 -2.90006 -12.86634 27.49451
601 12 3 -0.80000 -3.67930 -12.00862 26.81716
602 12 30 1.70000 -4.06008 -12.64570 25.33004
603 12 2 -0.80000 -5.34541 -13.41191 25.52055
604 12 2 -0.80000 -2.80102 -13.39968 24.92410
605 12 3 -0.70000 -4.31706 -11.31036 24.38626
606 12 15 0.40000 -4.31413 -11.43832 23.02892
607 12 14 0.30000 -3.92429 -11.75233 21.64786
608 12 4 -0.70000 -4.79675 -11.73752 20.43826
609 12 12 0.70000 -4.59233 -10.78036 19.40345
610 12 1 -0.70000 -3.96678 -9.74229 19.60080
611 12 15 0.00000 -5.14401 -11.03383 17.94662
612 12 15 0.00000 -5.62213 -11.08619 16.17359
613 12 15 0.00000 -6.08465 -11.11266 14.38288
614 12 15 0.00000 -6.57014 -11.15522 12.59016
615 12 15 0.00000 -7.08879 -11.21922 10.80401
616 12 15 0.00000 -7.64055 -11.30212 9.02862
617 12 15 0.00000 -8.22388 -11.39981 7.26769
618 12 15 0.00000 -8.83422 -11.51104 5.52711
619 12 15 0.00000 -9.46848 -11.62663 3.81322
620 12 15 0.00000 -10.12295 -11.74248 2.13639
621 12 15 0.00000 -10.79541 -11.85384 0.50852
622 12 15 0.00000 -11.48272 -11.96197 -1.05249
623 12 15 0.00000 -12.18362 -12.05010 -2.54390
624 12 15 0.00000 -12.89548 -12.11510 -3.97811
625 12 15 0.00000 -13.60938 -12.15825 -5.37066
626 12 15 0.00000 -14.30824 -12.26822 -6.90374
627 12 16 0.00000 -15.03515 -12.26638 -8.19743
628 12 15 0.50000 -2.89837 -12.75636 21.71407
629 12 4 -0.70000 -1.95142 -13.60695 22.13190
630 12 12 0.80000 -1.56785 -14.63432 21.34905
631 12 1 -0.60000 -0.62063 -15.39109 21.62485
632 12 15 0.00000 -2.28431 -14.81839 20.12557
633 12 15 0.00000 -3.13624 -14.93266 18.87356
634 12 15 0.00000 -4.03795 -15.05567 17.65874
635 12 15 0.00000 -4.93698 -15.20588 16.44411
636 12 15 0.00000 -5.79797 -15.34922 15.19924
637 12 15 0.00000 -6.60672 -15.45220 13.91427
638 12 15 0.00000 -7.36260 -15.51041 12.59319
639 12 15 0.00000 -8.06591 -15.54533 11.24136
640 12 15 0.00000 -8.70948 -15.58354 9.85855
641 12 15 0.00000 -9.28124 -15.63519 8.44506
642 12 15 0.00000 -9.77936 -15.68383 7.00237
643 12 15 0.00000 -10.21487 -15.69782 5.53725
644 12 15 0.00000 -10.61177 -15.65560 4.06167
645 12 15 0.00000 -10.99502 -15.56313 2.58377
646 12 15 0.00000 -11.37702 -15.44695 1.10441
647 12 15 0.00000 -11.77516 -15.42843 -0.36971
648 12 16 0.00000 -12.14228 -15.23828 -1.85285
649 13 16 0.40000 -13.23255 -13.85364 29.50934
650 13 16 0.40000 -13.35987 -11.76955 28.38359
651 13 16 0.40000 -13.32004 -13.80473 27.13308
652 13 8 -0.50000 -13.82487 -13.16486 28.34962
653 13 15 0.30000 -15.28874 -13.20019 28.41519
654 13 15 0.40000 -16.82330 -13.11047 28.28502
655 13 3 -0.80000 -18.04479 -12.95280 27.75136