created with groupy

14592 atoms
11904 bonds
10368 angles
6016 dihedrals
384 impropers

58 atom types
54 bond types
55 angle types
43 dihedral types
3 improper types

-40.000000 40.000000 xlo xhi
-40.000000 40.000000 ylo yhi
-47.513564 47.513564 zlo zhi

Masses

1 15.9994
2 15.9994
3 15.9994
4 15.9994
5 15.9994
6 14.0067
7 14.0067
8 14.0067
9 14.0067
10 14.0067
11 14.0067
12 12.0110
13 12.0110
14 13.0190
15 14.0270
16 15.0350
17 16.0430
18 14.0270
19 13.0190
20 1.0080
21 1.0080
22 999.0   # dummy, this type not in this system
23 32.0600
24 63.5460
25 63.5460
26 55.8470
27 65.3700
28 24.3050
29 40.0800
30 30.9738
31 39.9480
32 18.9984
33 35.4350
34 79.9040
35 15.0350
36 15.9994
37 22.9898
38 35.4350
39 12.0110
40 35.4350
41 1.0080
42 32.0600
43 15.0350
44 15.9994
45 12.0110
46 35.4350
47 18.9984
48 12.0110
49 14.0270
50 15.9994
51 12.0110
52 15.9994
53 14.0067
54 28.0800
55 999.0   # dummy, this type not in this system
56 999.0   # dummy, this type not in this system
57 15.9994
58 1.0080

Atoms

1 1 16 0.40000 37.93391 -31.68005 40.38569
2 1 16 0.40000 35.84474 -30.85139 39.62694
3 1 16 0.40000 37.67898 -31.04328 38.10836
4 1 8 -0.50000 37.00291 -31.67375 39.24401
5 1 15 0.30000 36.56006 -33.03437 38.92608
6 1 15 0.40000 35.96142 -34.36471 38.42441
7 1 3 -0.80000 35.37111 -35.27129 37.62985
8 1 30 1.70000 35.58530 -34.84989 36.03645
9 1 2 -0.80000 36.85801 -35.52720 35.59270
10 1 2 -0.80000 35.52148 -33.32864 36.05075
11 1 3 -0.70000 34.27738 -35.52029 35.27500
12 1 15 0.40000 33.93887 -35.09470 34.02478
13 1 14 0.30000 33.57571 -34.25233 32.87741
14 1 4 -0.70000 33.55567 -34.64631 31.43904
15 1 12 0.70000 32.32819 -34.72013 30.72027
16 1 1 -0.70000 31.24898 -34.82025 31.29744
17 1 15 0.00000 32.30839 -34.64836 29.14376
18 1 15 0.00000 31.98476 -34.54160 27.33853
19 1 15 0.00000 31.62683 -34.43144 25.52717
20 1 15 0.00000 31.29187 -34.33068 23.70261
21 1 15 0.00000 30.99167 -34.24694 21.86787
22 1 15 0.00000 30.72548 -34.18263 20.02713
23 1 15 0.00000 30.49040 -34.13965 18.18496
24 1 15 0.00000 30.28526 -34.11655 16.34869
25 1 15 0.00000 30.10313 -34.11737 14.52663
26 1 15 0.00000 29.94231 -34.14403 12.73027
27 1 15 0.00000 29.80177 -34.20038 10.97196
28 1 15 0.00000 29.68700 -34.28790 9.26902
29 1 15 0.00000 29.58436 -34.41520 7.62689
30 1 15 0.00000 29.48600 -34.57861 6.03580
31 1 15 0.00000 29.38396 -34.76620 4.48496
32 1 15 0.00000 29.28500 -34.86933 2.80259
33 1 16 0.00000 29.18355 -35.11719 1.34303
34 1 15 0.50000 33.97847 -32.90935 33.19226
35 1 4 -0.70000 34.40340 -31.80358 33.81798
36 1 12 0.80000 34.83353 -30.74329 33.10648
37 1 1 -0.60000 35.13364 -29.65006 33.61712
38 1 15 0.00000 34.90544 -30.90220 31.68743
39 1 15 0.00000 34.97003 -31.19987 30.19961
40 1 15 0.00000 35.07621 -31.54272 28.72477
41 1 15 0.00000 35.20395 -31.86898 27.24714
42 1 15 0.00000 35.29915 -32.16035 25.75798
43 1 15 0.00000 35.32436 -32.42063 24.25883
44 1 15 0.00000 35.27691 -32.65271 22.75421
45 1 15 0.00000 35.17662 -32.84679 21.24571
46 1 15 0.00000 35.04238 -32.98290 19.73202
47 1 15 0.00000 34.87738 -33.04602 18.21665
48 1 15 0.00000 34.66759 -33.04378 16.70410
49 1 15 0.00000 34.39372 -33.00370 15.20082
50 1 15 0.00000 34.05240 -32.95968 13.71147
51 1 15 0.00000 33.66234 -32.93080 12.23273
52 1 15 0.00000 33.25148 -32.91316 10.75665
53 1 15 0.00000 32.93095 -32.85791 9.26465
54 1 16 0.00000 32.45055 -32.86664 7.80184
55 2 16 0.40000 38.74618 36.75118 38.60574
56 2 16 0.40000 37.20607 38.33960 37.75018
57 2 16 0.40000 38.75156 37.26036 36.28251
58 2 8 -0.50000 37.88939 37.07161 37.45097
59 2 15 0.30000 36.89752 36.01531 37.22985
60 2 15 0.40000 35.77501 35.03945 36.82055
61 2 3 -0.80000 34.83775 34.41867 36.08717
62 2 30 1.70000 35.18520 34.58390 34.47027
63 2 2 -0.80000 36.03337 33.39227 34.10138
64 2 2 -0.80000 35.78409 35.98007 34.36771
65 2 3 -0.70000 33.70310 34.48750 33.73953
66 2 15 0.40000 33.55974 34.92103 32.45491
67 2 14 0.30000 33.57571 35.74767 31.24069
68 2 4 -0.70000 33.36283 35.29274 29.83632
69 2 12 0.70000 32.21138 35.70120 29.10414
70 2 1 -0.70000 31.20469 36.12062 29.66853
71 2 15 0.00000 32.19723 35.65434 27.52663
72 2 15 0.00000 31.92018 35.75261 25.71319
73 2 15 0.00000 31.61354 35.86827 23.89278
74 2 15 0.00000 31.32334 35.96456 22.06034
75 2 15 0.00000 31.05698 36.02978 20.21963
76 2 15 0.00000 30.81281 36.06241 18.37500
77 2 15 0.00000 30.58747 36.06233 16.53112
78 2 15 0.00000 30.38068 36.03192 14.69514
79 2 15 0.00000 30.18455 35.97116 12.87555
80 2 15 0.00000 29.99696 35.87993 11.08390
81 2 15 0.00000 29.81550 35.75616 9.33281
82 2 15 0.00000 29.64480 35.59747 7.63973
83 2 15 0.00000 29.46893 35.40240 6.01052
84 2 15 0.00000 29.28223 35.17690 4.43500
85 2 15 0.00000 29.08248 34.93433 2.90139
86 2 15 0.00000 28.91965 34.75634 1.23028
87 2 16 0.00000 28.69602 34.46627 -0.20773
88 2 15 0.50000 34.52376 36.80518 31.45938
89 2 4 -0.70000 35.39485 37.66352 32.00643
90 2 12 0.80000 36.22791 38.37702 31.22388
91 2 1 -0.60000 36.97902 39.26919 31.65500
92 2 15 0.00000 36.19971 38.09521 29.82249
93 2 15 0.00000 36.10386 37.68659 28.36296
94 2 15 0.00000 36.02627 37.22040 26.92052
95 2 15 0.00000 35.97522 36.75961 25.47442
96 2 15 0.00000 35.90967 36.34335 24.01360
97 2 15 0.00000 35.79424 35.98447 22.53925
98 2 15 0.00000 35.62533 35.68186 21.05605
99 2 15 0.00000 35.42508 35.43591 19.56517
100 2 15 0.00000 35.21913 35.25632 18.06413
101 2 15 0.00000 35.01689 35.15550 16.55533
102 2 15 0.00000 34.80248 35.13296 15.04359
103 2 15 0.00000 34.54677 35.17279 13.53711
104 2 15 0.00000 34.23215 35.24631 12.04304
105 2 15 0.00000 33.86722 35.32806 10.55988
106 2 15 0.00000 33.47872 35.40888 9.07986
107 2 15 0.00000 33.18765 35.48333 7.58265
108 2 16 0.00000 32.72529 35.57144 6.11667
109 3 16 0.40000 28.17627 -31.99728 38.82033
110 3 16 0.40000 26.17994 -30.97708 38.04522
111 3 16 0.40000 27.98438 -31.37850 36.53189
112 3 8 -0.50000 27.24957 -31.91794 37.67790
113 3 15 0.30000 26.67240 -33.23276 37.38365
114 3 15 0.40000 25.94308 -34.50510 36.90503
115 3 3 -0.80000 25.26424 -35.36190 36.12607
116 3 30 1.70000 25.51814 -34.99228 34.52567
117 3 2 -0.80000 26.71623 -35.80138 34.09508
118 3 2 -0.80000 25.60702 -33.47227 34.51304
119 3 3 -0.70000 24.14899 -35.54165 33.77502
120 3 15 0.40000 23.85369 -35.10644 32.51718
121 3 14 0.30000 23.57571 -34.25233 31.35480
122 3 4 -0.70000 23.51503 -34.66766 29.92359
123 3 12 0.70000 22.28570 -34.63085 29.20515
124 3 1 -0.70000 21.20240 -34.61218 29.78304
125 3 15 0.00000 22.27179 -34.58532 27.62759
126 3 15 0.00000 21.95888 -34.47858 25.82048
127 3 15 0.00000 21.61218 -34.36513 24.00713
128 3 15 0.00000 21.28737 -34.26357 22.18079
129 3 15 0.00000 20.99545 -34.18259 20.34458
130 3 15 0.00000 20.73540 -34.12446 18.50276
131 3 15 0.00000 20.50417 -34.09070 16.65991
132 3 15 0.00000 20.30075 -34.07960 14.82334
133 3 15 0.00000 20.11784 -34.09435 13.00142
134 3 15 0.00000 19.95357 -34.13648 11.20566
135 3 15 0.00000 19.80653 -34.20952 9.44850
136 3 15 0.00000 19.68206 -34.31516 7.74727
137 3 15 0.00000 19.56573 -34.46053 6.10756
138 3 15 0.00000 19.45009 -34.64134 4.51951
139 3 15 0.00000 19.32840 -34.84512 2.97214
140 3 15 0.00000 19.21811 -34.96752 1.29176
141 3 16 0.00000 19.09106 -35.22971 -0.16328
142 3 15 0.50000 24.11123 -32.95109 31.64623
143 3 4 -0.70000 24.64532 -31.88256 32.25270
144 3 12 0.80000 25.17885 -30.88342 31.52297
145 3 1 -0.60000 25.58740 -29.81689 32.01449
146 3 15 0.00000 25.23322 -31.07376 30.10701
147 3 15 0.00000 25.26636 -31.40264 28.62474
148 3 15 0.00000 25.33636 -31.78038 27.15628
149 3 15 0.00000 25.42947 -32.14384 25.68475
150 3 15 0.00000 25.49369 -32.46953 24.20106
151 3 15 0.00000 25.49138 -32.75746 22.70676
152 3 15 0.00000 25.41959 -33.01015 21.20643
153 3 15 0.00000 25.29903 -33.21983 19.70151
154 3 15 0.00000 25.15049 -33.36852 18.19034
155 3 15 0.00000 24.97865 -33.44154 16.67618
156 3 15 0.00000 24.76880 -33.44502 15.16364
157 3 15 0.00000 24.49899 -33.40426 13.65964
158 3 15 0.00000 24.16247 -33.35259 12.16944
159 3 15 0.00000 23.77595 -33.31091 10.69008
160 3 15 0.00000 23.36762 -33.27827 9.21356
161 3 15 0.00000 23.05291 -33.21756 7.72052
162 3 16 0.00000 22.57276 -33.20396 6.25768
163 4 16 0.40000 36.99495 -27.62956 38.49590
164 4 16 0.40000 37.92474 -25.87013 37.20483
165 4 16 0.40000 37.19219 -27.87870 36.13884
166 4 8 -0.50000 36.89644 -26.92219 37.20743
167 4 15 0.30000 35.57065 -26.31850 37.04518
168 4 15 0.40000 34.25821 -25.60009 36.66938
169 4 3 -0.80000 33.29759 -25.01097 35.94011
170 4 30 1.70000 33.36014 -25.56236 34.37345
171 4 2 -0.80000 32.44534 -26.76037 34.31542
172 4 2 -0.80000 34.84838 -25.75306 34.11408
173 4 3 -0.70000 32.73051 -24.31048 33.49240
174 4 15 0.40000 32.93889 -24.26723 32.14575
175 4 14 0.30000 33.57571 -24.25233 30.82206
176 4 4 -0.70000 32.90865 -24.41304 29.49777
177 4 12 0.70000 32.85608 -23.33200 28.57184
178 4 1 -0.70000 33.01710 -22.16863 28.93032
179 4 15 0.00000 32.61356 -23.59469 27.03459
180 4 15 0.00000 32.39960 -23.60743 25.21003
181 4 15 0.00000 32.19227 -23.58849 23.37211
182 4 15 0.00000 31.97013 -23.59253 21.52766
183 4 15 0.00000 31.72483 -23.62921 19.68324
184 4 15 0.00000 31.45496 -23.69667 17.84315
185 4 15 0.00000 31.15997 -23.79101 16.01154
186 4 15 0.00000 30.84289 -23.91007 14.19501
187 4 15 0.00000 30.50239 -24.04502 12.40088
188 4 15 0.00000 30.13910 -24.19194 10.64021
189 4 15 0.00000 29.75190 -24.34704 8.92540
190 4 15 0.00000 29.34208 -24.51246 7.27448
191 4 15 0.00000 28.90416 -24.67258 5.69147
192 4 15 0.00000 28.44083 -24.82206 4.16474
193 4 15 0.00000 27.96254 -24.95703 2.68024
194 4 15 0.00000 27.53957 -25.13166 1.05499
195 4 16 0.00000 27.02092 -25.24146 -0.33100
196 4 15 0.50000 34.88908 -24.81467 30.97634
197 4 4 -0.70000 36.03128 -25.30553 31.47558
198 4 12 0.80000 36.86160 -26.02274 30.69352
199 4 1 -0.60000 37.98519 -26.41002 31.05896
200 4 15 0.00000 36.41443 -26.30883 29.36600
201 4 15 0.00000 35.81978 -26.57632 27.99442
202 4 15 0.00000 35.17835 -26.87439 26.65140
203 4 15 0.00000 34.54960 -27.19665 25.30716
204 4 15 0.00000 33.95675 -27.49514 23.93933
205 4 15 0.00000 33.40135 -27.73260 22.54255
206 4 15 0.00000 32.88187 -27.90520 21.12117
207 4 15 0.00000 32.40549 -28.03352 19.67898
208 4 15 0.00000 31.98887 -28.13949 18.21508
209 4 15 0.00000 31.64685 -28.22813 16.73093
210 4 15 0.00000 31.37478 -28.28376 15.22936
211 4 15 0.00000 31.14979 -28.28194 13.71746
212 4 15 0.00000 30.94034 -28.21290 12.20485
213 4 15 0.00000 30.72477 -28.09219 10.69535
214 4 15 0.00000 30.50158 -27.94895 9.18618
215 4 15 0.00000 30.29975 -27.90244 7.67324
216 4 16 0.00000 30.06282 -27.68500 6.16751
217 5 16 0.40000 17.89034 3.12487 38.29197
218 5 16 0.40000 18.25640 5.14301 37.10030
219 5 16 0.40000 18.13358 3.06572 35.92680
220 5 8 -0.50000 17.57983 3.83802 37.04088
221 5 15 0.30000 16.13440 4.03615 36.89974
222 5 15 0.40000 14.66661 4.35872 36.55132
223 5 3 -0.80000 13.57033 4.67864 35.84597
224 5 30 1.70000 13.77901 4.25085 34.25354
225 5 2 -0.80000 13.25312 2.84271 34.12694
226 5 2 -0.80000 15.25609 4.51627 33.99614
227 5 3 -0.70000 12.80477 5.30815 33.43326
228 5 15 0.40000 12.98113 5.47955 32.09226
229 5 14 0.30000 13.57571 5.74767 30.77601
230 5 4 -0.70000 12.97441 5.46768 29.44013
231 5 12 0.70000 12.60162 6.53249 28.57066
232 5 1 -0.70000 12.41896 7.67216 28.98975
233 5 15 0.00000 12.43450 6.28992 27.02012
234 5 15 0.00000 12.21957 6.30919 25.19573
235 5 15 0.00000 12.00163 6.36134 23.35968
236 5 15 0.00000 11.77617 6.38756 21.51582
237 5 15 0.00000 11.53809 6.37584 19.67012
238 5 15 0.00000 11.28553 6.32733 17.82697
239 5 15 0.00000 11.01685 6.24540 15.99074
240 5 15 0.00000 10.73437 6.13262 14.16810
241 5 15 0.00000 10.43429 5.99668 12.36684
242 5 15 0.00000 10.11617 5.84094 10.59821
243 5 15 0.00000 9.77791 5.66805 8.87477
244 5 15 0.00000 9.42152 5.47542 7.21443
245 5 15 0.00000 9.03724 5.27616 5.62197
246 5 15 0.00000 8.62597 5.07675 4.08605
247 5 15 0.00000 8.19649 4.88467 2.59294
248 5 15 0.00000 7.83041 4.67809 0.95767
249 5 16 0.00000 7.35574 4.49319 -0.43608
250 5 15 0.50000 14.99715 5.58582 30.91124
251 5 4 -0.70000 16.23666 5.42456 31.39332
252 5 12 0.80000 17.23409 5.02205 30.58179
253 5 1 -0.60000 18.42455 4.96117 30.93544
254 5 15 0.00000 16.87966 4.68663 29.23792
255 5 15 0.00000 16.37841 4.32821 27.84988
256 5 15 0.00000 15.84157 3.92547 26.48841
257 5 15 0.00000 15.32390 3.50339 25.12459
258 5 15 0.00000 14.83344 3.11570 23.73870
259 5 15 0.00000 14.36079 2.79871 22.32733
260 5 15 0.00000 13.90336 2.55542 20.89500
261 5 15 0.00000 13.47410 2.36806 19.44451
262 5 15 0.00000 13.09529 2.22061 17.97395
263 5 15 0.00000 12.78264 2.11251 16.48461
264 5 15 0.00000 12.52711 2.05725 14.98013
265 5 15 0.00000 12.29978 2.07113 13.46864
266 5 15 0.00000 12.06769 2.15377 11.96002
267 5 15 0.00000 11.81470 2.28382 10.45712
268 5 15 0.00000 11.54785 2.43315 8.95565
269 5 15 0.00000 11.32962 2.49652 7.44560
270 5 16 0.00000 11.02800 2.71254 5.95128
271 6 16 0.40000 -24.15330 -30.40641 38.95408
272 6 16 0.40000 -26.35552 -30.88744 38.21527
273 6 16 0.40000 -24.80963 -29.80887 36.74753
274 6 8 -0.50000 -24.94883 -30.82928 37.78852
275 6 15 0.30000 -24.51998 -32.14917 37.31689
276 6 15 0.40000 -24.24114 -33.51711 36.66049
277 6 3 -0.80000 -24.21391 -34.50944 35.75704
278 6 30 1.70000 -24.34129 -33.88053 34.22387
279 6 2 -0.80000 -22.92901 -33.63237 33.75551
280 6 2 -0.80000 -25.28460 -32.69733 34.39324
281 6 3 -0.70000 -25.03221 -35.10739 33.35362
282 6 15 0.40000 -25.59780 -34.83473 32.14345
283 6 14 0.30000 -26.42429 -34.25233 31.07778
284 6 4 -0.70000 -26.25783 -34.43185 29.60652
285 6 12 0.70000 -27.23209 -35.13668 28.84310
286 6 1 -0.70000 -28.02735 -35.90971 29.37021
287 6 15 0.00000 -27.34321 -34.92762 27.28269
288 6 15 0.00000 -27.72844 -34.84498 25.48833
289 6 15 0.00000 -28.14362 -34.77907 23.68706
290 6 15 0.00000 -28.53515 -34.70590 21.87248
291 6 15 0.00000 -28.88891 -34.62495 20.04718
292 6 15 0.00000 -29.20395 -34.53904 18.21505
293 6 15 0.00000 -29.48135 -34.45189 16.38034
294 6 15 0.00000 -29.72266 -34.36375 14.55045
295 6 15 0.00000 -29.93085 -34.28281 12.73299
296 6 15 0.00000 -30.10577 -34.21278 10.93911
297 6 15 0.00000 -30.24559 -34.15865 9.18068
298 6 15 0.00000 -30.34442 -34.12017 7.47492
299 6 15 0.00000 -30.40804 -34.11283 5.82592
300 6 15 0.00000 -30.44532 -34.13725 4.22405
301 6 15 0.00000 -30.47004 -34.18742 2.65958
302 6 15 0.00000 -30.54622 -34.15434 0.97319
303 6 16 0.00000 -30.53204 -34.26202 -0.50676
304 6 15 0.50000 -26.87535 -32.96980 31.54318
305 6 4 -0.70000 -27.15891 -31.89698 32.29382
306 6 12 0.80000 -27.45654 -30.71936 31.71064
307 6 1 -0.60000 -27.83763 -29.71791 32.34140
308 6 15 0.00000 -27.35288 -30.65812 30.28600
309 6 15 0.00000 -27.17606 -30.70552 28.77839
310 6 15 0.00000 -26.93867 -30.76616 27.28041
311 6 15 0.00000 -26.69364 -30.80056 25.78210
312 6 15 0.00000 -26.49581 -30.82481 24.27485
313 6 15 0.00000 -26.37318 -30.86410 22.75851
314 6 15 0.00000 -26.32607 -30.92277 21.23722
315 6 15 0.00000 -26.34414 -30.98152 19.71422
316 6 15 0.00000 -26.42386 -31.01306 18.19092
317 6 15 0.00000 -26.57133 -31.00383 16.67246
318 6 15 0.00000 -26.79329 -30.96866 15.16206
319 6 15 0.00000 -27.08899 -30.94162 13.66263
320 6 15 0.00000 -27.44112 -30.95241 12.17518
321 6 15 0.00000 -27.82345 -31.00505 10.69508
322 6 15 0.00000 -28.21594 -31.07919 9.21576
323 6 15 0.00000 -28.55791 -31.06850 7.72754
324 6 16 0.00000 -28.99076 -31.20598 6.25635
325 7 16 0.40000 -1.14675 36.15518 38.41965
326 7 16 0.40000 -2.43130 37.93445 37.51903
327 7 16 0.40000 -1.06929 36.59573 36.08371
328 7 8 -0.50000 -1.94771 36.57037 37.25504
329 7 15 0.30000 -3.08804 35.67030 37.06010
330 7 15 0.40000 -4.34575 34.86444 36.67464
331 7 3 -0.80000 -5.36743 34.37288 35.95614
332 7 30 1.70000 -5.00229 34.44072 34.33612
333 7 2 -0.80000 -4.34437 33.12538 34.00078
334 7 2 -0.80000 -4.19982 35.72732 34.19767
335 7 3 -0.70000 -6.48344 34.54964 33.60522
336 7 15 0.40000 -6.56235 34.96550 32.30923
337 7 14 0.30000 -6.42429 35.74767 31.07348
338 7 4 -0.70000 -6.70620 35.29287 29.68128
339 7 12 0.70000 -7.78433 35.85075 28.93618
340 7 1 -0.70000 -8.71506 36.43212 29.48717
341 7 15 0.00000 -7.80857 35.76461 27.36045
342 7 15 0.00000 -8.07128 35.85528 25.54448
343 7 15 0.00000 -8.36063 35.96741 23.72102
344 7 15 0.00000 -8.63668 36.05759 21.88608
345 7 15 0.00000 -8.89387 36.11326 20.04375
346 7 15 0.00000 -9.13404 36.13328 18.19842
347 7 15 0.00000 -9.36053 36.11814 16.35474
348 7 15 0.00000 -9.57326 36.07045 14.51981
349 7 15 0.00000 -9.77998 35.99159 12.70209
350 7 15 0.00000 -9.98280 35.88208 10.91313
351 7 15 0.00000 -10.18439 35.74056 9.16559
352 7 15 0.00000 -10.38050 35.56445 7.47699
353 7 15 0.00000 -10.58708 35.35488 5.85319
354 7 15 0.00000 -10.80884 35.11830 4.28386
355 7 15 0.00000 -11.04600 34.86793 2.75684
356 7 15 0.00000 -11.23719 34.67215 1.09073
357 7 16 0.00000 -11.50493 34.38099 -0.33951
358 7 15 0.50000 -5.32710 36.65548 31.26588
359 7 4 -0.70000 -4.33538 37.38681 31.79166
360 7 12 0.80000 -3.40579 37.94538 30.99209
361 7 1 -0.60000 -2.52780 38.72516 31.40084
362 7 15 0.00000 -3.47901 37.63388 29.59863
363 7 15 0.00000 -3.63836 37.20571 28.15030
364 7 15 0.00000 -3.78831 36.71836 26.72062
365 7 15 0.00000 -3.91122 36.23224 25.28718
366 7 15 0.00000 -4.04177 35.79192 23.83783
367 7 15 0.00000 -4.21300 35.41547 22.37332
368 7 15 0.00000 -4.42862 35.10246 20.89835
369 7 15 0.00000 -4.66670 34.84996 19.41415
370 7 15 0.00000 -4.90042 34.66364 17.91800
371 7 15 0.00000 -5.11860 34.55438 16.41201
372 7 15 0.00000 -5.33700 34.52423 14.90098
373 7 15 0.00000 -5.58682 34.56210 13.39346
374 7 15 0.00000 -5.88977 34.64247 11.89733
375 7 15 0.00000 -6.24118 34.73885 10.41179
376 7 15 0.00000 -6.61602 34.83796 8.92936
377 7 15 0.00000 -6.89555 34.91562 7.43012
378 7 16 0.00000 -7.34228 35.03345 5.96138
379 8 16 0.40000 -28.30329 37.83460 41.39010
380 8 16 0.40000 -28.71055 35.74954 40.33478
381 8 16 0.40000 -29.34142 37.78288 39.25087
382 8 8 -0.50000 -28.32185 37.14670 40.08753
383 8 15 0.30000 -26.99871 37.18811 39.45821
384 8 15 0.40000 -25.70452 37.10450 38.62278
385 8 3 -0.80000 -24.87588 36.95113 37.57802
386 8 30 1.70000 -25.68105 37.29119 36.16436
387 8 2 -0.80000 -25.47184 38.76294 35.90814
388 8 2 -0.80000 -27.09159 36.77595 36.41612
389 8 3 -0.70000 -24.88156 36.38736 35.03132
390 8 15 0.40000 -25.47161 36.14965 33.82546
391 8 14 0.30000 -26.42429 35.74767 32.78204
392 8 4 -0.70000 -26.36791 36.08455 31.33019
393 8 12 0.70000 -26.14063 35.07167 30.35491
394 8 1 -0.70000 -25.63936 33.99116 30.65340
395 8 15 0.00000 -26.55284 35.29303 28.84758
396 8 15 0.00000 -26.97014 35.25625 27.05887
397 8 15 0.00000 -27.38314 35.18722 25.25722
398 8 15 0.00000 -27.79616 35.14477 23.44643
399 8 15 0.00000 -28.20444 35.14177 21.63074
400 8 15 0.00000 -28.60457 35.17751 19.81362
401 8 15 0.00000 -28.99300 35.24909 17.99849
402 8 15 0.00000 -29.36919 35.35375 16.19238
403 8 15 0.00000 -29.72567 35.48481 14.40107
404 8 15 0.00000 -30.05768 35.63935 12.63489
405 8 15 0.00000 -30.35856 35.81548 10.90485
406 8 15 0.00000 -30.62452 36.01593 9.22857
407 8 15 0.00000 -30.84271 36.22956 7.60682
408 8 15 0.00000 -31.01674 36.44950 6.02907
409 8 15 0.00000 -31.15816 36.66650 4.48517
410 8 15 0.00000 -31.40896 36.88306 2.82957
411 8 16 0.00000 -31.47361 37.10343 1.36352
412 8 15 0.50000 -27.72117 35.67432 33.39657
413 8 4 -0.70000 -28.73178 35.64090 34.27542
414 8 12 0.80000 -29.99773 35.84760 33.86298
415 8 1 -0.60000 -30.98982 35.71964 34.60147
416 8 15 0.00000 -30.18184 36.19775 32.48908
417 8 15 0.00000 -30.24886 36.59374 31.02446
418 8 15 0.00000 -30.28129 37.04012 29.57406
419 8 15 0.00000 -30.33549 37.50230 28.12851
420 8 15 0.00000 -30.41665 37.92540 26.67045
421 8 15 0.00000 -30.51116 38.27511 25.19241
422 8 15 0.00000 -30.61460 38.54902 23.69766
423 8 15 0.00000 -30.74097 38.76258 22.19376
424 8 15 0.00000 -30.91421 38.92783 20.68695
425 8 15 0.00000 -31.14850 39.04270 19.18380
426 8 15 0.00000 -31.43202 39.09554 17.68425
427 8 15 0.00000 -31.73250 39.07534 16.18566
428 8 15 0.00000 -32.01614 38.98823 14.68613
429 8 15 0.00000 -32.27060 38.85806 13.18349
430 8 15 0.00000 -32.50852 38.71123 11.67692
431 8 15 0.00000 -32.80869 38.64077 10.18132
432 8 16 0.00000 -33.00089 38.43421 8.66770
433 9 16 0.40000 -12.36336 12.86158 40.33558
434 9 16 0.40000 -11.81426 14.81796 39.11163
435 9 16 0.40000 -12.12835 12.74200 37.97186
436 9 8 -0.50000 -12.60794 13.57988 39.07286
437 9 15 0.30000 -14.02916 13.90770 38.92745
438 9 15 0.40000 -15.46135 14.35812 38.57276
439 9 3 -0.80000 -16.52411 14.76596 37.86150
440 9 30 1.70000 -16.35682 14.29506 36.27637
441 9 2 -0.80000 -17.00999 12.93934 36.17220
442 9 2 -0.80000 -14.86179 14.41939 36.01580
443 9 3 -0.70000 -17.23038 15.42399 35.43832
444 9 15 0.40000 -17.04001 15.55669 34.09486
445 9 14 0.30000 -16.42429 15.74767 32.77489
446 9 4 -0.70000 -17.04977 15.50252 31.44327
447 9 12 0.70000 -17.32378 16.58285 30.55638
448 9 1 -0.70000 -17.40061 17.74113 30.95680
449 9 15 0.00000 -17.51364 16.33157 29.00985
450 9 15 0.00000 -17.72725 16.34094 27.18522
451 9 15 0.00000 -17.94085 16.38314 25.34841
452 9 15 0.00000 -18.16431 16.40009 23.50419
453 9 15 0.00000 -18.40384 16.38039 21.65875
454 9 15 0.00000 -18.66116 16.32544 19.81645
455 9 15 0.00000 -18.93761 16.23880 17.98158
456 9 15 0.00000 -19.23062 16.12294 16.16079
457 9 15 0.00000 -19.54327 15.98598 14.36175
458 9 15 0.00000 -19.87568 15.83149 12.59564
459 9 15 0.00000 -20.22968 15.66252 10.87498
460 9 15 0.00000 -20.60350 15.47657 9.21771
461 9 15 0.00000 -21.00566 15.28770 7.62840
462 9 15 0.00000 -21.43466 15.10206 6.09561
463 9 15 0.00000 -21.88109 14.92610 4.60549
464 9 15 0.00000 -22.26583 14.72756 2.97351
465 9 16 0.00000 -22.75652 14.56451 1.58259
466 9 15 0.50000 -15.02364 15.45808 32.91378
467 9 4 -0.70000 -13.80384 15.19142 33.39934
468 9 12 0.80000 -12.84823 14.68584 32.59518
469 9 1 -0.60000 -11.66813 14.52155 32.95066
470 9 15 0.00000 -13.23299 14.36268 31.25666
471 9 15 0.00000 -13.76609 14.02940 29.87423
472 9 15 0.00000 -14.33869 13.65569 28.51907
473 9 15 0.00000 -14.89398 13.26093 27.16188
474 9 15 0.00000 -15.41903 12.89755 25.78209
475 9 15 0.00000 -15.91987 12.60251 24.37569
476 9 15 0.00000 -16.39878 12.37911 22.94715
477 9 15 0.00000 -16.84453 12.20852 21.49956
478 9 15 0.00000 -17.23638 12.07269 20.03130
479 9 15 0.00000 -17.55876 11.96967 18.54368
480 9 15 0.00000 -17.81941 11.91375 17.04010
481 9 15 0.00000 -18.04563 11.92396 15.52842
482 9 15 0.00000 -18.27026 12.00313 14.01848
483 9 15 0.00000 -18.51135 12.13151 12.51348
484 9 15 0.00000 -18.76447 12.28038 11.00959
485 9 15 0.00000 -18.97708 12.33906 9.49855
486 9 16 0.00000 -19.25868 12.55764 8.00070
487 10 16 0.40000 -36.73411 -10.72007 41.13134
488 10 16 0.40000 -38.18729 -12.38043 40.26045
489 10 16 0.40000 -37.70357 -10.42242 38.98000
490 10 8 -0.50000 -37.13875 -11.41471 39.89685
491 10 15 0.30000 -36.00123 -12.12082 39.30026
492 10 15 0.40000 -34.95835 -12.93715 38.50914
493 10 3 -0.80000 -34.35521 -13.59128 37.50414
494 10 30 1.70000 -34.90434 -13.01446 36.04533
495 10 2 -0.80000 -33.97104 -11.89329 35.66144
496 10 2 -0.80000 -36.37120 -12.70090 36.30703
497 10 3 -0.70000 -34.71633 -14.30033 35.02011
498 10 15 0.40000 -35.37477 -14.30755 33.82631
499 10 14 0.30000 -36.42429 -14.25233 32.79997
500 10 4 -0.70000 -36.23885 -14.12707 31.32536
501 10 12 0.70000 -36.59281 -15.19558 30.45257
502 10 1 -0.70000 -36.71486 -16.34718 30.86097
503 10 15 0.00000 -36.86945 -14.93147 28.92134
504 10 15 0.00000 -37.29106 -14.91010 27.13339
505 10 15 0.00000 -37.72598 -14.91958 25.33560
506 10 15 0.00000 -38.14741 -14.90725 23.52630
507 10 15 0.00000 -38.54452 -14.86426 21.70864
508 10 15 0.00000 -38.91467 -14.79263 19.88623
509 10 15 0.00000 -39.25623 -14.69636 18.06284
510 10 15 0.00000 -39.56997 -14.57743 16.24571
511 10 15 0.00000 -39.85284 -14.44488 14.44142
512 10 15 0.00000 -40.10199 -14.30270 12.66063
513 10 15 0.00000 -40.31243 -14.15495 10.91465
514 10 15 0.00000 -40.47904 -13.99964 9.22085
515 10 15 0.00000 -40.59658 -13.85284 7.58135
516 10 15 0.00000 -40.67195 -13.71949 5.98620
517 10 15 0.00000 -40.72008 -13.60241 4.42586
518 10 15 0.00000 -40.86487 -13.43935 2.75156
519 10 16 0.00000 -40.84358 -13.35199 1.27036
520 10 15 0.50000 -37.55623 -13.58833 33.38542
521 10 4 -0.70000 -38.41585 -13.01424 34.23764
522 10 12 0.80000 -39.40271 -12.22149 33.77599
523 10 1 -0.60000 -40.29893 -11.75023 34.49758
524 10 15 0.00000 -39.41420 -11.95351 32.37165
525 10 15 0.00000 -39.30412 -11.71532 30.87581
526 10 15 0.00000 -39.13803 -11.45082 29.39040
527 10 15 0.00000 -38.98229 -11.16118 27.90784
528 10 15 0.00000 -38.87012 -10.89200 26.41569
529 10 15 0.00000 -38.80783 -10.68022 24.91000
530 10 15 0.00000 -38.79280 -10.52985 23.39436
531 10 15 0.00000 -38.82880 -10.41983 21.87452
532 10 15 0.00000 -38.92997 -10.32698 20.35501
533 10 15 0.00000 -39.10931 -10.24510 18.84217
534 10 15 0.00000 -39.36276 -10.19025 17.33731
535 10 15 0.00000 -39.66845 -10.18871 15.83964
536 10 15 0.00000 -39.99435 -10.25291 14.34757
537 10 15 0.00000 -40.31761 -10.36913 12.85706
538 10 15 0.00000 -40.63544 -10.50844 11.36457
539 10 15 0.00000 -40.96677 -10.54957 9.87447
540 10 16 0.00000 -41.27653 -10.76399 8.38158
541 11 16 0.40000 17.68075 -11.40859 39.16583
542 11 16 0.40000 15.52282 -10.76604 38.41921
543 11 16 0.40000 17.36579 -10.76101 36.89909
544 11 8 -0.50000 16.75234 -11.47038 38.02370
545 11 15 0.30000 16.43809 -12.86096 37.68309
546 11 15 0.40000 15.96576 -14.23291 37.15915
547 11 3 -0.80000 15.46198 -15.17741 36.34933
548 11 30 1.70000 15.63470 -14.71172 34.76324
549 11 2 -0.80000 16.96470 -15.25997 34.30939
550 11 2 -0.80000 15.42928 -13.20350 34.80251
551 11 3 -0.70000 14.39443 -15.48858 33.98986
552 11 15 0.40000 14.01674 -15.07591 32.74656
553 11 14 0.30000 13.57571 -14.25233 31.61292
554 11 4 -0.70000 13.59140 -14.62275 30.16825
555 11 12 0.70000 12.37561 -14.79891 29.44741
556 11 1 -0.70000 11.31088 -15.00874 30.02203
557 11 15 0.00000 12.34799 -14.70339 27.87228
558 11 15 0.00000 12.01442 -14.59760 26.06881
559 11 15 0.00000 11.64639 -14.49153 24.25922
560 11 15 0.00000 11.30208 -14.39246 22.43632
561 11 15 0.00000 10.99397 -14.30692 20.60297
562 11 15 0.00000 10.72153 -14.23745 18.76333
563 11 15 0.00000 10.48205 -14.18630 16.92194
564 11 15 0.00000 10.27423 -14.15223 15.08613
565 11 15 0.00000 10.09157 -14.14007 13.26417
566 11 15 0.00000 9.93256 -14.15206 11.46749
567 11 15 0.00000 9.79654 -14.19235 9.70839
568 11 15 0.00000 9.68912 -14.26217 8.00415
569 11 15 0.00000 9.59754 -14.37147 6.36007
570 11 15 0.00000 9.51363 -14.51715 4.76643
571 11 15 0.00000 9.42834 -14.68790 3.21264
572 11 15 0.00000 9.33813 -14.77214 1.52872
573 11 16 0.00000 9.25913 -15.00434 0.06520
574 11 15 0.50000 13.85169 -12.88300 31.95012
575 11 4 -0.70000 14.17210 -11.75286 32.59426
576 11 12 0.80000 14.50092 -10.64551 31.90063
577 11 1 -0.60000 14.69814 -9.53760 32.42942
578 11 15 0.00000 14.58624 -10.77366 30.47922
579 11 15 0.00000 14.67718 -11.03950 28.98675
580 11 15 0.00000 14.81374 -11.34664 27.50655
581 11 15 0.00000 14.97021 -11.63522 26.02385
582 11 15 0.00000 15.09103 -11.89191 24.53018
583 11 15 0.00000 15.13926 -12.12401 23.02697
584 11 15 0.00000 15.11251 -12.33472 21.51870
585 11 15 0.00000 15.02960 -12.51248 20.00714
586 11 15 0.00000 14.90747 -12.63560 18.49131
587 11 15 0.00000 14.74792 -12.68890 16.97498
588 11 15 0.00000 14.53767 -12.68137 15.46252
589 11 15 0.00000 14.26010 -12.64228 13.95989
590 11 15 0.00000 13.91501 -12.60581 12.47119
591 11 15 0.00000 13.52282 -12.58912 10.99284
592 11 15 0.00000 13.11097 -12.58560 9.51693
593 11 15 0.00000 12.78554 -12.53596 8.02579
594 11 16 0.00000 12.30693 -12.56540 6.56267
595 12 16 0.40000 -4.42945 -28.15101 38.57286
596 12 16 0.40000 -2.92231 -26.96130 37.17998
597 12 16 0.40000 -4.37125 -28.61204 36.24031
598 12 8 -0.50000 -4.27102 -27.54589 37.23908
599 12 15 0.30000 -5.27377 -26.49951 37.01988
600 12 15 0.40000 -6.22373 -25.36634 36.58016
601 12 3 -0.80000 -6.90111 -24.50862 35.80094
602 12 30 1.70000 -7.07121 -25.14570 34.27531
603 12 2 -0.80000 -8.37055 -25.91191 34.28508
604 12 2 -0.80000 -5.76792 -25.89968 34.04855
605 12 3 -0.70000 -7.19435 -23.81036 33.30495
606 12 15 0.40000 -7.00255 -23.93832 31.96123
607 12 14 0.30000 -6.42429 -24.25233 30.64786
608 12 4 -0.70000 -7.11991 -24.23752 29.32861
609 12 12 0.70000 -6.77347 -23.28036 28.33231
610 12 1 -0.70000 -6.18147 -22.24229 28.61481
611 12 15 0.00000 -7.11703 -23.53383 26.81289
612 12 15 0.00000 -7.34373 -23.58619 24.99057
613 12 15 0.00000 -7.55254 -23.61266 23.15291
614 12 15 0.00000 -7.78380 -23.65522 21.31007
615 12 15 0.00000 -8.04882 -23.71922 19.46913
616 12 15 0.00000 -8.34812 -23.80212 17.63422
617 12 15 0.00000 -8.68071 -23.89981 15.80925
618 12 15 0.00000 -9.04286 -24.01104 14.00066
619 12 15 0.00000 -9.43242 -24.12663 12.21518
620 12 15 0.00000 -9.84715 -24.24248 10.46359
621 12 15 0.00000 -10.28652 -24.35384 8.75797
622 12 15 0.00000 -10.74989 -24.46197 7.11650
623 12 15 0.00000 -11.23640 -24.55010 5.54206
624 12 15 0.00000 -11.74173 -24.61510 4.02273
625 12 15 0.00000 -12.25488 -24.65825 2.54438
626 12 15 0.00000 -12.73357 -24.76822 0.92896
627 12 16 0.00000 -13.27335 -24.76638 -0.45331
628 12 15 0.50000 -5.41757 -25.25636 30.85621
629 12 4 -0.70000 -4.53799 -26.10695 31.40176
630 12 12 0.80000 -4.04919 -27.13432 30.67991
631 12 1 -0.60000 -3.14957 -27.89109 31.08485
632 12 15 0.00000 -4.58841 -27.31839 29.36863
633 12 15 0.00000 -5.25780 -27.43266 28.01023
634 12 15 0.00000 -5.98166 -27.55567 26.68174
635 12 15 0.00000 -6.70290 -27.70588 25.35381
636 12 15 0.00000 -7.38226 -27.84922 24.00123
637 12 15 0.00000 -8.00430 -27.95220 22.61621
638 12 15 0.00000 -8.56897 -28.01041 21.20279
639 12 15 0.00000 -9.07730 -28.04533 19.76623
640 12 15 0.00000 -9.52215 -28.08354 18.30732
641 12 15 0.00000 -9.89163 -28.13519 16.82800
642 12 15 0.00000 -10.18412 -28.18383 15.33003
643 12 15 0.00000 -10.41149 -28.19782 13.81855
644 12 15 0.00000 -10.59916 -28.15560 12.30210
645 12 15 0.00000 -10.77300 -28.06313 10.78525
646 12 15 0.00000 -10.94540 -27.94695 9.26712
647 12 15 0.00000 -11.13450 -27.92843 7.75194