created with groupy

12072 atoms
9384 bonds
7092 angles
3832 dihedrals
132 impropers

58 atom types
54 bond types
55 angle types
43 dihedral types
3 improper types

-40.000000 40.000000 xlo xhi
-40.000000 40.000000 ylo yhi
-47.513564 47.513564 zlo zhi

Masses

1 15.9994
2 15.9994
3 15.9994
4 15.9994
5 15.9994
6 14.0067
7 14.0067
8 14.0067
9 14.0067
10 14.0067
11 14.0067
12 12.0110
13 12.0110
14 13.0190
15 14.0270
16 15.0350
17 16.0430
18 14.0270
19 13.0190
20 1.0080
21 1.0080
22 999.0   # dummy, this type not in this system
23 32.0600
24 63.5460
25 63.5460
26 55.8470
27 65.3700
28 24.3050
29 40.0800
30 30.9738
31 39.9480
32 18.9984
33 35.4350
34 79.9040
35 15.0350
36 15.9994
37 22.9898
38 35.4350
39 12.0110
40 35.4350
41 1.0080
42 32.0600
43 15.0350
44 15.9994
45 12.0110
46 35.4350
47 18.9984
48 12.0110
49 14.0270
50 15.9994
51 12.0110
52 15.9994
53 14.0067
54 28.0800
55 999.0   # dummy, this type not in this system
56 999.0   # dummy, this type not in this system
57 15.9994
58 1.0080

Atoms

1 1 16 0.40000 38.19329 -31.68005 40.22902
2 1 16 0.40000 36.07892 -30.85139 39.54364
3 1 16 0.40000 37.85904 -31.04328 37.96197
4 1 8 -0.50000 37.22301 -31.67375 39.12053
5 1 15 0.30000 36.76933 -33.03437 38.81825
6 1 15 0.40000 36.15355 -34.36471 38.33777
7 1 3 -0.80000 35.53587 -35.27129 37.56429
8 1 30 1.70000 35.69432 -34.84989 35.96439
9 1 2 -0.80000 36.95077 -35.52720 35.47650
10 1 2 -0.80000 35.63104 -33.32864 35.98091
11 1 3 -0.70000 34.36063 -35.52029 35.24905
12 1 15 0.40000 33.97869 -35.09470 34.01141
13 1 14 0.30000 33.57571 -34.25233 32.87741
14 1 4 -0.70000 33.50548 -34.64631 31.44062
15 1 12 0.70000 32.25367 -34.72013 30.76512
16 1 1 -0.70000 31.19526 -34.82025 31.37961
17 1 15 0.00000 32.17886 -34.64836 29.19026
18 1 15 0.00000 31.79243 -34.54160 27.39743
19 1 15 0.00000 31.37150 -34.43144 25.59966
20 1 15 0.00000 30.97307 -34.33068 23.78791
21 1 15 0.00000 30.60902 -34.24694 21.96476
22 1 15 0.00000 30.27875 -34.18263 20.13443
23 1 15 0.00000 29.97952 -34.13965 18.30159
24 1 15 0.00000 29.71042 -34.11655 16.47359
25 1 15 0.00000 29.46481 -34.11737 14.65900
26 1 15 0.00000 29.24140 -34.14403 12.86934
27 1 15 0.00000 29.03958 -34.20038 11.11701
28 1 15 0.00000 28.86544 -34.28790 9.41911
29 1 15 0.00000 28.70556 -34.41520 7.78157
30 1 15 0.00000 28.55173 -34.57861 6.19488
31 1 15 0.00000 28.39563 -34.76620 4.64855
32 1 15 0.00000 28.23801 -34.86933 2.97065
33 1 16 0.00000 28.08570 -35.11719 1.51552
34 1 15 0.50000 33.98921 -32.90935 33.17801
35 1 4 -0.70000 34.43572 -31.80358 33.78852
36 1 12 0.80000 34.84076 -30.74329 33.06244
37 1 1 -0.60000 35.15851 -29.65006 33.56230
38 1 15 0.00000 34.86310 -30.90220 31.64175
39 1 15 0.00000 34.87573 -31.19987 30.15258
40 1 15 0.00000 34.93037 -31.54272 28.67493
41 1 15 0.00000 35.00646 -31.86898 27.19374
42 1 15 0.00000 35.04963 -32.16035 25.70217
43 1 15 0.00000 35.02251 -32.42063 24.20305
44 1 15 0.00000 34.92258 -32.65271 22.70101
45 1 15 0.00000 34.76971 -32.84679 21.19692
46 1 15 0.00000 34.58272 -32.98290 19.68884
47 1 15 0.00000 34.36494 -33.04602 18.18016
48 1 15 0.00000 34.10248 -33.04378 16.67585
49 1 15 0.00000 33.77632 -33.00370 15.18304
50 1 15 0.00000 33.38322 -32.95968 13.70651
51 1 15 0.00000 32.94180 -32.93080 12.24229
52 1 15 0.00000 32.47967 -32.91316 10.78144
53 1 15 0.00000 32.10726 -32.85791 9.30153
54 1 16 0.00000 31.57611 -32.86664 7.85639
55 2 16 0.40000 39.00006 36.75118 38.42080
56 2 16 0.40000 37.43103 38.33960 37.61951
57 2 16 0.40000 38.92436 37.26036 36.09880
58 2 8 -0.50000 38.10350 37.07161 37.29664
59 2 15 0.30000 37.10452 36.01531 37.11027
60 2 15 0.40000 35.96841 35.03945 36.74040
61 2 3 -0.80000 35.00612 34.41867 36.04017
62 2 30 1.70000 35.29693 34.58390 34.41213
63 2 2 -0.80000 36.13171 33.39227 34.01387
64 2 2 -0.80000 35.89188 35.98007 34.28874
65 2 3 -0.70000 33.79023 34.48750 33.73356
66 2 15 0.40000 33.60213 34.92103 32.45473
67 2 14 0.30000 33.57571 35.74767 31.24069
68 2 4 -0.70000 33.31395 35.29274 29.84460
69 2 12 0.70000 32.13764 35.70120 29.15306
70 2 1 -0.70000 31.15127 36.12062 29.75223
71 2 15 0.00000 32.06845 35.65434 27.57700
72 2 15 0.00000 31.72828 35.75261 25.77434
73 2 15 0.00000 31.35830 35.86827 23.96574
74 2 15 0.00000 31.00432 35.96456 22.14454
75 2 15 0.00000 30.67389 36.02978 20.31424
76 2 15 0.00000 30.36549 36.06241 18.47926
77 2 15 0.00000 30.07594 36.06233 16.64437
78 2 15 0.00000 29.80519 36.03192 14.81672
79 2 15 0.00000 29.54569 35.97116 13.00509
80 2 15 0.00000 29.29568 35.87993 11.22108
81 2 15 0.00000 29.05322 35.75616 9.47739
82 2 15 0.00000 28.82353 35.59747 7.79130
83 2 15 0.00000 28.59091 35.40240 6.16921
84 2 15 0.00000 28.34934 35.17690 4.60117
85 2 15 0.00000 28.09619 34.93433 3.07547
86 2 15 0.00000 27.87514 34.75634 1.41105
87 2 16 0.00000 27.60146 34.46627 -0.01828
88 2 15 0.50000 34.53082 36.80518 31.42616
89 2 4 -0.70000 35.42046 37.66352 31.94248
90 2 12 0.80000 36.22571 38.37702 31.13133
91 2 1 -0.60000 36.99140 39.26919 31.53598
92 2 15 0.00000 36.14861 38.09521 29.73178
93 2 15 0.00000 36.00189 37.68659 28.27648
94 2 15 0.00000 35.87400 37.22040 26.83763
95 2 15 0.00000 35.77251 36.75961 25.39419
96 2 15 0.00000 35.65603 36.34335 23.93655
97 2 15 0.00000 35.48921 35.98447 22.46713
98 2 15 0.00000 35.26864 35.68186 20.99072
99 2 15 0.00000 35.01649 35.43591 19.50774
100 2 15 0.00000 34.75827 35.25632 18.01480
101 2 15 0.00000 34.50350 35.15550 16.51398
102 2 15 0.00000 34.23647 35.13296 15.01064
103 2 15 0.00000 33.92833 35.17279 13.51400
104 2 15 0.00000 33.56176 35.24631 12.03183
105 2 15 0.00000 33.14529 35.32806 10.56231
106 2 15 0.00000 32.70538 35.40888 9.09674
107 2 15 0.00000 32.36224 35.48333 7.61061
108 2 16 0.00000 31.84899 35.57144 6.16166
109 3 16 0.40000 28.43402 -31.99728 38.65523
110 3 16 0.40000 26.41184 -30.97708 37.95026
111 3 16 0.40000 28.16238 -31.37850 36.37488
112 3 8 -0.50000 27.46801 -31.91794 37.54583
113 3 15 0.30000 26.88092 -33.23276 37.27191
114 3 15 0.40000 26.13534 -34.50510 36.81903
115 3 3 -0.80000 25.42973 -35.36190 36.06424
116 3 30 1.70000 25.62762 -34.99228 34.45595
117 3 2 -0.80000 26.80995 -35.80138 33.98381
118 3 2 -0.80000 25.71600 -33.47227 34.44023
119 3 3 -0.70000 24.23310 -35.54165 33.75353
120 3 15 0.40000 23.89409 -35.10644 32.50677
121 3 14 0.30000 23.57571 -34.25233 31.35480
122 3 4 -0.70000 23.46512 -34.66766 29.92658
123 3 12 0.70000 22.21147 -34.63085 29.25148
124 3 1 -0.70000 21.14899 -34.61218 29.86682
125 3 15 0.00000 22.14251 -34.58532 27.67537
126 3 15 0.00000 21.76672 -34.47858 25.88027
127 3 15 0.00000 21.35694 -34.36513 24.08013
128 3 15 0.00000 20.96860 -34.26357 22.26624
129 3 15 0.00000 20.61277 -34.18259 20.44134
130 3 15 0.00000 20.28860 -34.12446 18.60971
131 3 15 0.00000 19.99320 -34.09070 16.77606
132 3 15 0.00000 19.72581 -34.07960 14.94770
133 3 15 0.00000 19.47942 -34.09435 13.13328
134 3 15 0.00000 19.25258 -34.13648 11.34435
135 3 15 0.00000 19.04431 -34.20952 9.59339
136 3 15 0.00000 18.86054 -34.31516 7.89754
137 3 15 0.00000 18.68706 -34.46053 6.26289
138 3 15 0.00000 18.51606 -34.64134 4.67984
139 3 15 0.00000 18.34045 -34.84512 3.13766
140 3 15 0.00000 18.17158 -34.96752 1.46215
141 3 16 0.00000 17.99383 -35.22971 0.01243
142 3 15 0.50000 24.12108 -32.95109 31.62736
143 3 4 -0.70000 24.67601 -31.88256 32.21483
144 3 12 0.80000 25.18375 -30.88342 31.46692
145 3 1 -0.60000 25.60919 -29.81689 31.94388
146 3 15 0.00000 25.18867 -31.07376 30.04993
147 3 15 0.00000 25.17006 -31.40264 28.56740
148 3 15 0.00000 25.18877 -31.78038 27.09739
149 3 15 0.00000 25.23046 -32.14384 25.62351
150 3 15 0.00000 25.24286 -32.46953 24.13848
151 3 15 0.00000 25.18840 -32.75746 22.64517
152 3 15 0.00000 25.06429 -33.01015 21.14826
153 3 15 0.00000 24.89128 -33.21983 19.64846
154 3 15 0.00000 24.69009 -33.36852 18.14340
155 3 15 0.00000 24.46552 -33.44154 16.63616
156 3 15 0.00000 24.20301 -33.44502 15.13186
157 3 15 0.00000 23.88088 -33.40426 13.63820
158 3 15 0.00000 23.49255 -33.35259 12.16065
159 3 15 0.00000 23.05464 -33.31091 10.69568
160 3 15 0.00000 22.59503 -33.27827 9.23431
161 3 15 0.00000 22.22840 -33.21756 7.75316
162 3 16 0.00000 21.69749 -33.20396 6.30797
163 4 16 0.40000 37.26068 -27.62956 38.37189
164 4 16 0.40000 38.14485 -25.87013 37.04916
165 4 16 0.40000 37.37554 -27.87870 36.00939
166 4 8 -0.50000 37.11726 -26.92219 37.08765
167 4 15 0.30000 35.78662 -26.31850 36.97177
168 4 15 0.40000 34.46186 -25.60009 36.64200
169 4 3 -0.80000 33.47637 -25.01097 35.94670
170 4 30 1.70000 33.48422 -25.56236 34.37881
171 4 2 -0.80000 32.56795 -26.76037 34.35274
172 4 2 -0.80000 34.96249 -25.75306 34.06766
173 4 3 -0.70000 32.82421 -24.31048 33.52027
174 4 15 0.40000 32.98548 -24.26723 32.16717
175 4 14 0.30000 33.57571 -24.25233 30.82206
176 4 4 -0.70000 32.86284 -24.41304 29.52186
177 4 12 0.70000 32.77798 -23.33200 28.59832
178 4 1 -0.70000 32.95142 -22.16863 28.95097
179 4 15 0.00000 32.48197 -23.59469 27.07048
180 4 15 0.00000 32.20446 -23.60743 25.25449
181 4 15 0.00000 31.93311 -23.58849 23.42493
182 4 15 0.00000 31.64674 -23.59253 21.58936
183 4 15 0.00000 31.33721 -23.62921 19.75462
184 4 15 0.00000 31.00329 -23.69667 17.92506
185 4 15 0.00000 30.64456 -23.79101 16.10487
186 4 15 0.00000 30.26428 -23.91007 14.30051
187 4 15 0.00000 29.86137 -24.04502 12.51936
188 4 15 0.00000 29.43686 -24.19194 10.77244
189 4 15 0.00000 28.99004 -24.34704 9.07219
190 4 15 0.00000 28.52286 -24.51246 7.43658
191 4 15 0.00000 28.02997 -24.67258 5.86982
192 4 15 0.00000 27.51363 -24.82206 4.36018
193 4 15 0.00000 26.98383 -24.95703 2.89328
194 4 15 0.00000 26.50440 -25.13166 1.28379
195 4 16 0.00000 25.93769 -25.24146 -0.08326
196 4 15 0.50000 34.89366 -24.81467 30.93041
197 4 4 -0.70000 36.05259 -25.30553 31.38949
198 4 12 0.80000 36.85512 -26.02274 30.57892
199 4 1 -0.60000 37.99077 -26.41002 30.90493
200 4 15 0.00000 36.36189 -26.30883 29.26782
201 4 15 0.00000 35.71973 -26.57632 27.91783
202 4 15 0.00000 35.03182 -26.87439 26.59801
203 4 15 0.00000 34.35654 -27.19665 25.27653
204 4 15 0.00000 33.71631 -27.49514 23.93022
205 4 15 0.00000 33.11251 -27.73260 22.55368
206 4 15 0.00000 32.54373 -27.90520 21.15129
207 4 15 0.00000 32.01732 -28.03352 19.72661
208 4 15 0.00000 31.54986 -28.13949 18.27814
209 4 15 0.00000 31.15625 -28.22813 16.80683
210 4 15 0.00000 30.83194 -28.28376 15.31567
211 4 15 0.00000 30.55433 -28.28194 13.81254
212 4 15 0.00000 30.29222 -28.21290 12.30816
213 4 15 0.00000 30.02410 -28.09219 10.80711
214 4 15 0.00000 29.74837 -27.94895 9.30664
215 4 15 0.00000 29.49386 -27.90244 7.80167
216 4 16 0.00000 29.20452 -27.68500 6.30513
217 5 16 0.40000 18.15001 3.12487 38.13682
218 5 16 0.40000 18.47426 5.14301 36.93310
219 5 16 0.40000 18.31056 3.06572 35.76460
220 5 8 -0.50000 17.79604 3.83802 36.89733
221 5 15 0.30000 16.34655 4.03615 36.80671
222 5 15 0.40000 14.86750 4.35872 36.50973
223 5 3 -0.80000 13.74727 4.67864 35.84307
224 5 30 1.70000 13.90025 4.25085 34.24433
225 5 2 -0.80000 13.37027 2.84271 34.13616
226 5 2 -0.80000 15.36745 4.51627 33.93553
227 5 3 -0.70000 12.89798 5.30815 33.45854
228 5 15 0.40000 13.02743 5.47955 32.11221
229 5 14 0.30000 13.57571 5.74767 30.77601
230 5 4 -0.70000 12.92816 5.46768 29.46193
231 5 12 0.70000 12.52524 6.53249 28.60600
232 5 1 -0.70000 12.35732 7.67216 29.03120
233 5 15 0.00000 12.30412 6.28992 27.06224
234 5 15 0.00000 12.02564 6.30919 25.24646
235 5 15 0.00000 11.74376 6.36134 23.41913
236 5 15 0.00000 11.45409 6.38756 21.58426
237 5 15 0.00000 11.15175 6.37584 19.74800
238 5 15 0.00000 10.83501 6.32733 17.91479
239 5 15 0.00000 10.50241 6.24540 16.08905
240 5 15 0.00000 10.15649 6.13262 14.27738
241 5 15 0.00000 9.79373 5.99668 12.48769
242 5 15 0.00000 9.41408 5.84094 10.73124
243 5 15 0.00000 9.01588 5.66805 9.02065
244 5 15 0.00000 8.60177 5.47542 7.37376
245 5 15 0.00000 8.16214 5.27616 5.79568
246 5 15 0.00000 7.69752 5.07675 4.27505
247 5 15 0.00000 7.21619 4.88467 2.79784
248 5 15 0.00000 6.79326 4.67809 1.17634
249 5 16 0.00000 6.27024 4.49319 -0.19999
250 5 15 0.50000 15.00100 5.58582 30.86155
251 5 4 -0.70000 16.25658 5.42456 31.30008
252 5 12 0.80000 17.22508 5.02205 30.45424
253 5 1 -0.60000 18.42716 4.96117 30.76613
254 5 15 0.00000 16.82397 4.68663 29.12355
255 5 15 0.00000 16.27458 4.32821 27.75385
256 5 15 0.00000 15.69055 3.92547 26.41195
257 5 15 0.00000 15.12560 3.50339 25.06702
258 5 15 0.00000 14.58707 3.11570 23.69909
259 5 15 0.00000 14.06545 2.79871 22.30508
260 5 15 0.00000 13.55832 2.55542 20.88959
261 5 15 0.00000 13.07869 2.36806 19.45496
262 5 15 0.00000 12.64880 2.22061 17.99851
263 5 15 0.00000 12.28436 2.11251 16.52100
264 5 15 0.00000 11.97648 2.05725 15.02635
265 5 15 0.00000 11.69654 2.07113 13.52371
266 5 15 0.00000 11.41194 2.15377 12.02411
267 5 15 0.00000 11.10666 2.28382 10.53096
268 5 15 0.00000 10.78757 2.43315 9.03971
269 5 15 0.00000 10.51677 2.49652 7.53820
270 5 16 0.00000 10.16319 2.71254 6.05531
271 6 16 0.40000 -23.87981 -30.40641 38.87003
272 6 16 0.40000 -26.10647 -30.88744 38.20852
273 6 16 0.40000 -24.61274 -29.80887 36.68773
274 6 8 -0.50000 -24.71553 -30.82928 37.73294
275 6 15 0.30000 -24.30340 -32.14917 37.24662
276 6 15 0.40000 -24.04763 -33.51711 36.58090
277 6 3 -0.80000 -24.05196 -34.50944 35.67705
278 6 30 1.70000 -24.23276 -33.88053 34.14925
279 6 2 -0.80000 -22.83769 -33.63237 33.63190
280 6 2 -0.80000 -25.16958 -32.69733 34.35145
281 6 3 -0.70000 -24.95363 -35.10739 33.30365
282 6 15 0.40000 -25.56111 -34.83473 32.11396
283 6 14 0.30000 -26.42429 -34.25233 31.07778
284 6 4 -0.70000 -26.30928 -34.43185 29.60161
285 6 12 0.70000 -27.30958 -35.13668 28.87265
286 6 1 -0.70000 -28.08597 -35.90971 29.42719
287 6 15 0.00000 -27.47510 -34.92762 27.31707
288 6 15 0.00000 -27.92271 -34.84498 25.53724
289 6 15 0.00000 -28.40051 -34.77907 23.75156
290 6 15 0.00000 -28.85512 -34.70590 21.95175
291 6 15 0.00000 -29.27237 -34.62495 20.13991
292 6 15 0.00000 -29.65116 -34.53904 18.31989
293 6 15 0.00000 -29.99242 -34.45189 16.49599
294 6 15 0.00000 -30.29745 -34.36375 14.67563
295 6 15 0.00000 -30.56894 -34.28281 12.86654
296 6 15 0.00000 -30.80636 -34.21278 11.07986
297 6 15 0.00000 -31.00746 -34.15865 9.32738
298 6 15 0.00000 -31.16576 -34.12017 7.62611
299 6 15 0.00000 -31.28689 -34.11283 5.98033
300 6 15 0.00000 -31.38005 -34.13725 4.38074
301 6 15 0.00000 -31.45936 -34.18742 2.81809
302 6 15 0.00000 -31.59434 -34.15434 1.13538
303 6 16 0.00000 -31.63182 -34.26202 -0.34416
304 6 15 0.50000 -26.85884 -32.96980 31.55863
305 6 4 -0.70000 -27.11602 -31.89698 32.31872
306 6 12 0.80000 -27.43383 -30.71936 31.74628
307 6 1 -0.60000 -27.79267 -29.71791 32.38996
308 6 15 0.00000 -27.37994 -30.65812 30.31889
309 6 15 0.00000 -27.25585 -30.70552 28.80603
310 6 15 0.00000 -27.07088 -30.76616 27.30067
311 6 15 0.00000 -26.87830 -30.80056 25.79472
312 6 15 0.00000 -26.73318 -30.82481 24.28149
313 6 15 0.00000 -26.66355 -30.86410 22.76180
314 6 15 0.00000 -26.66956 -30.92277 21.23979
315 6 15 0.00000 -26.74077 -30.98152 19.71835
316 6 15 0.00000 -26.87360 -31.01306 18.19876
317 6 15 0.00000 -27.07398 -31.00383 16.68637
318 6 15 0.00000 -27.34852 -30.96866 15.18463
319 6 15 0.00000 -27.69636 -30.94162 13.69643
320 6 15 0.00000 -28.10019 -30.95241 12.22218
321 6 15 0.00000 -28.53394 -31.00505 10.75633
322 6 15 0.00000 -28.97782 -31.07919 9.29161
323 6 15 0.00000 -29.37153 -31.06850 7.81622
324 6 16 0.00000 -29.85545 -31.20598 6.36104
325 7 16 0.40000 -0.89359 36.15518 38.23099
326 7 16 0.40000 -2.20878 37.93445 37.37575
327 7 16 0.40000 -0.89770 36.59573 35.89377
328 7 8 -0.50000 -1.73470 36.57037 37.09505
329 7 15 0.30000 -2.88114 35.67030 36.94002
330 7 15 0.40000 -4.15154 34.86444 36.59869
331 7 3 -0.80000 -5.19767 34.37288 35.91628
332 7 30 1.70000 -4.88929 34.44072 34.28451
333 7 2 -0.80000 -4.24347 33.12538 33.92641
334 7 2 -0.80000 -4.09214 35.72732 34.11813
335 7 3 -0.70000 -6.39505 34.54964 33.60574
336 7 15 0.40000 -6.51913 34.96550 32.31329
337 7 14 0.30000 -6.42429 35.74767 31.07348
338 7 4 -0.70000 -6.75462 35.29287 29.69197
339 7 12 0.70000 -7.85809 35.85075 28.98495
340 7 1 -0.70000 -8.76903 36.43212 29.56808
341 7 15 0.00000 -7.93731 35.76461 27.41102
342 7 15 0.00000 -8.26324 35.85528 25.60533
343 7 15 0.00000 -8.61605 35.96741 23.79308
344 7 15 0.00000 -8.95597 36.05759 21.96889
345 7 15 0.00000 -9.27729 36.11326 20.13666
346 7 15 0.00000 -9.58172 36.13328 18.30084
347 7 15 0.00000 -9.87242 36.11814 16.46618
348 7 15 0.00000 -10.14906 36.07045 14.63979
349 7 15 0.00000 -10.41908 35.99159 12.83039
350 7 15 0.00000 -10.68422 35.88208 11.04960
351 7 15 0.00000 -10.94668 35.74056 9.31016
352 7 15 0.00000 -11.20160 35.56445 7.62943
353 7 15 0.00000 -11.46472 35.35488 6.01383
354 7 15 0.00000 -11.74111 35.11830 4.45319
355 7 15 0.00000 -12.03142 34.86793 2.93538
356 7 15 0.00000 -12.28064 34.67215 1.27696
357 7 16 0.00000 -12.59814 34.38099 -0.14306
358 7 15 0.50000 -5.32105 36.65548 31.22747
359 7 4 -0.70000 -4.31159 37.38681 31.71832
360 7 12 0.80000 -3.41046 37.94538 30.88679
361 7 1 -0.60000 -2.51875 38.72516 31.26465
362 7 15 0.00000 -3.53228 37.63388 29.49674
363 7 15 0.00000 -3.74207 37.20571 28.05485
364 7 15 0.00000 -3.94183 36.71836 26.63128
365 7 15 0.00000 -4.11469 36.23224 25.20300
366 7 15 0.00000 -4.29574 35.79192 23.75909
367 7 15 0.00000 -4.51798 35.41547 22.30145
368 7 15 0.00000 -4.78495 35.10246 20.83491
369 7 15 0.00000 -5.07467 34.84996 19.35991
370 7 15 0.00000 -5.36047 34.66364 17.87283
371 7 15 0.00000 -5.63107 34.55438 16.37537
372 7 15 0.00000 -5.90208 34.52423 14.87289
373 7 15 0.00000 -6.20435 34.56210 13.37500
374 7 15 0.00000 -6.55933 34.64247 11.89036
375 7 15 0.00000 -6.96237 34.73885 10.41798
376 7 15 0.00000 -7.38872 34.83796 8.94954
377 7 15 0.00000 -7.72040 34.91562 7.46097
378 7 16 0.00000 -8.21812 35.03345 6.00871
379 8 16 0.40000 -28.00173 37.83460 41.45043
380 8 16 0.40000 -28.44557 35.74954 40.40997
381 8 16 0.40000 -29.11389 37.78288 39.34873
382 8 8 -0.50000 -28.06574 37.14670 40.14930
383 8 15 0.30000 -26.76536 37.18811 39.47419
384 8 15 0.40000 -25.50112 37.10450 38.59411
385 8 3 -0.80000 -24.70945 36.95113 37.52106
386 8 30 1.70000 -25.56346 37.29119 36.13636
387 8 2 -0.80000 -25.36332 38.76294 35.87299
388 8 2 -0.80000 -26.96436 36.77595 36.43720
389 8 3 -0.70000 -24.80401 36.38736 34.97611
390 8 15 0.40000 -25.43577 36.14965 33.79157
391 8 14 0.30000 -26.42429 35.74767 32.78204
392 8 4 -0.70000 -26.41861 36.08455 31.32911
393 8 12 0.70000 -26.22551 35.07167 30.34648
394 8 1 -0.70000 -25.71413 33.99116 30.62730
395 8 15 0.00000 -26.69007 35.29303 28.85447
396 8 15 0.00000 -27.16955 35.25625 27.08141
397 8 15 0.00000 -27.64517 35.18722 25.29527
398 8 15 0.00000 -28.12114 35.14477 23.50000
399 8 15 0.00000 -28.59253 35.14177 21.69966
400 8 15 0.00000 -29.05583 35.17751 19.89761
401 8 15 0.00000 -29.50737 35.24909 18.09715
402 8 15 0.00000 -29.94636 35.35375 16.30526
403 8 15 0.00000 -30.36515 35.48481 14.52748
404 8 15 0.00000 -30.75859 35.63935 12.77396
405 8 15 0.00000 -31.11967 35.81548 11.05548
406 8 15 0.00000 -31.44396 36.01593 9.38950
407 8 15 0.00000 -31.71862 36.22956 7.77636
408 8 15 0.00000 -31.94761 36.44950 6.20564
409 8 15 0.00000 -32.14283 36.66650 4.66762
410 8 15 0.00000 -32.45125 36.88306 3.02178
411 8 16 0.00000 -32.56703 37.10343 1.55888
412 8 15 0.50000 -27.69894 35.67432 33.44146
413 8 4 -0.70000 -28.67826 35.64090 34.35504
414 8 12 0.80000 -29.95783 35.84760 33.98703
415 8 1 -0.60000 -30.92354 35.71964 34.75970
416 8 15 0.00000 -30.18977 36.19775 32.62039
417 8 15 0.00000 -30.30787 36.59374 31.15901
418 8 15 0.00000 -30.39090 37.04012 29.71062
419 8 15 0.00000 -30.49552 37.50230 28.26785
420 8 15 0.00000 -30.62751 37.92540 26.81351
421 8 15 0.00000 -30.77354 38.27511 25.33966
422 8 15 0.00000 -30.92909 38.54902 23.84944
423 8 15 0.00000 -31.10786 38.76258 22.35086
424 8 15 0.00000 -31.33359 38.92783 20.85101
425 8 15 0.00000 -31.62019 39.04270 19.35696
426 8 15 0.00000 -31.95587 39.09554 17.86821
427 8 15 0.00000 -32.30847 39.07534 16.38102
428 8 15 0.00000 -32.64427 38.98823 14.89231
429 8 15 0.00000 -32.95102 38.85806 13.39946
430 8 15 0.00000 -33.24137 38.71123 11.90211
431 8 15 0.00000 -33.59355 38.64077 10.41790
432 8 16 0.00000 -33.83846 38.43421 8.91191
433 9 16 0.40000 -12.10197 12.86158 40.18925
434 9 16 0.40000 -11.59592 14.81796 38.94688
435 9 16 0.40000 -11.94960 12.74200 37.81877
436 9 8 -0.50000 -12.39047 13.57988 38.93584
437 9 15 0.30000 -13.81590 13.90770 38.84011
438 9 15 0.40000 -15.25959 14.35812 38.53562
439 9 3 -0.80000 -16.34653 14.76596 37.86188
440 9 30 1.70000 -16.23466 14.29506 36.27188
441 9 2 -0.80000 -16.89107 12.93934 36.19058
442 9 2 -0.80000 -14.74963 14.41939 35.95929
443 9 3 -0.70000 -17.13693 15.42399 35.46483
444 9 15 0.40000 -16.99357 15.55669 34.11554
445 9 14 0.30000 -16.42429 15.74767 32.77489
446 9 4 -0.70000 -17.09586 15.50252 31.46591
447 9 12 0.70000 -17.40066 16.58285 30.58912
448 9 1 -0.70000 -17.46346 17.74113 30.99198
449 9 15 0.00000 -17.64437 16.33157 29.05016
450 9 15 0.00000 -17.92153 16.34094 27.23410
451 9 15 0.00000 -18.19910 16.38314 25.40586
452 9 15 0.00000 -18.48679 16.40009 23.57057
453 9 15 0.00000 -18.79058 16.38039 21.73461
454 9 15 0.00000 -19.11204 16.32544 19.90241
455 9 15 0.00000 -19.45236 16.23880 18.07830
456 9 15 0.00000 -19.80873 16.12294 16.26885
457 9 15 0.00000 -20.18398 15.98598 14.48182
458 9 15 0.00000 -20.57782 15.83149 12.72839
459 9 15 0.00000 -20.99165 15.66252 11.02112
460 9 15 0.00000 -21.42309 15.47657 9.37791
461 9 15 0.00000 -21.88046 15.28770 7.80361
462 9 15 0.00000 -22.36270 15.10206 6.28672
463 9 15 0.00000 -22.86086 14.92610 4.81309
464 9 15 0.00000 -23.30232 14.72756 3.19553
465 9 16 0.00000 -23.84126 14.56451 1.82258
466 9 15 0.50000 -15.01965 15.45808 32.86481
467 9 4 -0.70000 -13.78364 15.19142 33.30750
468 9 12 0.80000 -12.85668 14.68584 32.47049
469 9 1 -0.60000 -11.66490 14.52155 32.78456
470 9 15 0.00000 -13.28791 14.36268 31.14621
471 9 15 0.00000 -13.86894 14.02940 29.78322
472 9 15 0.00000 -14.48849 13.65569 28.44888
473 9 15 0.00000 -15.09080 13.26093 27.11189
474 9 15 0.00000 -15.66369 12.89755 25.75126
475 9 15 0.00000 -16.21330 12.60251 24.36320
476 9 15 0.00000 -16.74178 12.37911 22.95225
477 9 15 0.00000 -17.23778 12.20852 21.52110
478 9 15 0.00000 -17.68063 12.07269 20.06741
479 9 15 0.00000 -18.05473 11.96967 18.59194
480 9 15 0.00000 -18.36770 11.91375 17.09837
481 9 15 0.00000 -18.64653 11.92396 15.59551
482 9 15 0.00000 -18.92373 12.00313 14.09433
483 9 15 0.00000 -19.21719 12.13151 12.59866
484 9 15 0.00000 -19.52264 12.28038 11.10452
485 9 15 0.00000 -19.78785 12.33906 9.60182
486 9 16 0.00000 -20.12156 12.55764 8.11471
487 10 16 0.40000 -36.44316 -10.72007 41.13708
488 10 16 0.40000 -37.92585 -12.38043 40.31743
489 10 16 0.40000 -37.48711 -10.42242 39.02088
490 10 8 -0.50000 -36.89064 -11.41471 39.91746
491 10 15 0.30000 -35.77463 -12.12082 39.28153
492 10 15 0.40000 -34.75999 -12.93715 38.45451
493 10 3 -0.80000 -34.19230 -13.59128 37.42907
494 10 30 1.70000 -34.79200 -13.01446 35.99031
495 10 2 -0.80000 -33.87267 -11.89329 35.57408
496 10 2 -0.80000 -36.24883 -12.70090 36.30304
497 10 3 -0.70000 -34.63989 -14.30033 34.95915
498 10 15 0.40000 -35.33959 -14.30755 33.78906
499 10 14 0.30000 -36.42429 -14.25233 32.79997
500 10 4 -0.70000 -36.29043 -14.12707 31.31979
501 10 12 0.70000 -36.67463 -15.19558 30.45988
502 10 1 -0.70000 -36.78235 -16.34718 30.87229
503 10 15 0.00000 -37.00454 -14.93147 28.93924
504 10 15 0.00000 -37.48829 -14.91010 27.16709
505 10 15 0.00000 -37.98569 -14.91958 25.38558
506 10 15 0.00000 -38.47001 -14.90725 23.59208
507 10 15 0.00000 -38.93031 -14.86426 21.78939
508 10 15 0.00000 -39.36383 -14.79263 19.98101
509 10 15 0.00000 -39.76882 -14.69636 18.17065
510 10 15 0.00000 -40.14579 -14.57743 16.36558
511 10 15 0.00000 -40.49146 -14.44488 14.57226
512 10 15 0.00000 -40.80260 -14.30270 12.80125
513 10 15 0.00000 -41.07385 -14.15495 11.06367
514 10 15 0.00000 -41.29947 -13.99964 9.37672
515 10 15 0.00000 -41.47416 -13.85284 7.74232
516 10 15 0.00000 -41.60515 -13.71949 6.15078
517 10 15 0.00000 -41.70771 -13.60241 4.59306
518 10 15 0.00000 -41.91084 -13.43935 2.92484
519 10 16 0.00000 -41.94126 -13.35199 1.44380
520 10 15 0.50000 -37.53511 -13.58833 33.42457
521 10 4 -0.70000 -38.36447 -13.01424 34.30627
522 10 12 0.80000 -39.36683 -12.22149 33.87934
523 10 1 -0.60000 -40.23732 -11.75023 34.63177
524 10 15 0.00000 -39.42732 -11.95351 32.47626
525 10 15 0.00000 -39.36952 -11.71532 30.97749
526 10 15 0.00000 -39.25537 -11.45082 29.48719
527 10 15 0.00000 -39.15146 -11.16118 28.00009
528 10 15 0.00000 -39.09144 -10.89200 26.50494
529 10 15 0.00000 -39.08174 -10.68022 24.99799
530 10 15 0.00000 -39.11961 -10.52985 23.48275
531 10 15 0.00000 -39.20863 -10.41983 21.96510
532 10 15 0.00000 -39.36276 -10.32698 20.45003
533 10 15 0.00000 -39.59480 -10.24510 18.94438
534 10 15 0.00000 -39.90061 -10.19025 17.44929
535 10 15 0.00000 -40.25838 -10.18871 15.96320
536 10 15 0.00000 -40.63615 -10.25291 14.48340
537 10 15 0.00000 -41.01124 -10.36913 13.00508
538 10 15 0.00000 -41.38096 -10.50844 11.52460
539 10 15 0.00000 -41.76409 -10.54957 10.04697
540 10 16 0.00000 -42.12576 -10.76399 8.56580
541 11 16 0.40000 17.94184 -11.40859 39.01797
542 11 16 0.40000 15.75917 -10.76604 38.34711
543 11 16 0.40000 17.54796 -10.76101 36.76359
544 11 8 -0.50000 16.97414 -11.47038 37.90893
545 11 15 0.30000 16.64819 -12.86096 37.57950
546 11 15 0.40000 16.15786 -14.23291 37.07236
547 11 3 -0.80000 15.62613 -15.17741 36.28061
548 11 30 1.70000 15.74339 -14.71172 34.68946
549 11 2 -0.80000 17.05674 -15.25997 34.18948
550 11 2 -0.80000 15.53946 -13.20350 34.73588
551 11 3 -0.70000 14.47689 -15.48858 33.95984
552 11 15 0.40000 14.05603 -15.07591 32.73048
553 11 14 0.30000 13.57571 -14.25233 31.61292
554 11 4 -0.70000 13.54097 -14.62275 30.16858
555 11 12 0.70000 12.30076 -14.79891 29.49062
556 11 1 -0.70000 11.25674 -15.00874 30.10204
557 11 15 0.00000 12.21819 -14.70339 27.91741
558 11 15 0.00000 11.82189 -14.59760 26.12667
559 11 15 0.00000 11.39092 -14.49153 24.33103
560 11 15 0.00000 10.98321 -14.39246 22.52126
561 11 15 0.00000 10.61130 -14.30692 20.69977
562 11 15 0.00000 10.27482 -14.23745 18.87076
563 11 15 0.00000 9.97122 -14.18630 17.03886
564 11 15 0.00000 9.69947 -14.15223 15.21142
565 11 15 0.00000 9.45333 -14.14007 13.39695
566 11 15 0.00000 9.23172 -14.15206 11.60691
567 11 15 0.00000 9.03438 -14.19235 9.85362
568 11 15 0.00000 8.86755 -14.26217 8.15417
569 11 15 0.00000 8.71865 -14.37147 6.51429
570 11 15 0.00000 8.57918 -14.51715 4.92455
571 11 15 0.00000 8.43971 -14.68790 3.37468
572 11 15 0.00000 8.29079 -14.77214 1.69493
573 11 16 0.00000 8.16076 -15.00434 0.23507
574 11 15 0.50000 13.86329 -12.88300 31.94028
575 11 4 -0.70000 14.20599 -11.75286 32.57285
576 11 12 0.80000 14.51039 -10.64551 31.86816
577 11 1 -0.60000 14.72595 -9.53760 32.38975
578 11 15 0.00000 14.54606 -10.77366 30.44464
579 11 15 0.00000 14.58485 -11.03950 28.94991
580 11 15 0.00000 14.66967 -11.34664 27.46585
581 11 15 0.00000 14.77431 -11.63522 25.97859
582 11 15 0.00000 14.84292 -11.89191 24.48161
583 11 15 0.00000 14.83866 -12.12401 22.97764
584 11 15 0.00000 14.75929 -12.33472 21.47122
585 11 15 0.00000 14.62368 -12.51248 19.96347
586 11 15 0.00000 14.44872 -12.63560 18.45283
587 11 15 0.00000 14.23635 -12.68890 16.94299
588 11 15 0.00000 13.97344 -12.68137 15.43878
589 11 15 0.00000 13.64360 -12.64228 13.94676
590 11 15 0.00000 13.24677 -12.60581 12.47101
591 11 15 0.00000 12.80322 -12.58912 11.00724
592 11 15 0.00000 12.34012 -12.58560 9.54661
593 11 15 0.00000 11.96284 -12.53596 8.06773
594 11 16 0.00000 11.43346 -12.56540 6.62221
595 12 16 0.40000 -4.15409 -28.15101 38.49841
596 12 16 0.40000 -2.69647 -26.96130 37.05379
597 12 16 0.40000 -4.17732 -28.61204 36.16526
598 12 8 -0.50000 -4.04230 -27.54589 37.15992
599 12 15 0.30000 -5.05209 -26.49951 36.97584
600 12 15 0.40000 -6.01682 -25.36634 36.56954
601 12 3 -0.80000 -6.72098 -24.50862 35.81445
602 12 30 1.70000 -6.94422 -25.14570 34.29567
603 12 2 -0.80000 -8.24243 -25.91191 34.35079
604 12 2 -0.80000 -5.64964 -25.89968 34.02357
605 12 3 -0.70000 -7.10115 -23.81036 33.33020
606 12 15 0.40000 -6.95636 -23.93832 31.98061
607 12 14 0.30000 -6.42429 -24.25233 30.64786
608 12 4 -0.70000 -7.16553 -24.23752 29.35369
609 12 12 0.70000 -6.85407 -23.28036 28.34591
610 12 1 -0.70000 -6.25257 -22.24229 28.60757
611 12 15 0.00000 -7.25045 -23.53383 26.83940
612 12 15 0.00000 -7.54061 -23.58619 25.02611
613 12 15 0.00000 -7.81342 -23.61266 23.19685
614 12 15 0.00000 -8.10886 -23.65522 21.36321
615 12 15 0.00000 -8.43796 -23.71922 19.53263
616 12 15 0.00000 -8.80112 -23.80212 17.70929
617 12 15 0.00000 -9.19719 -23.89981 15.89704
618 12 15 0.00000 -9.62224 -24.01104 14.10219
619 12 15 0.00000 -10.07388 -24.12663 12.33139
620 12 15 0.00000 -10.54948 -24.24248 10.59534
621 12 15 0.00000 -11.04811 -24.35384 8.90610
622 12 15 0.00000 -11.56849 -24.46197 7.28179
623 12 15 0.00000 -12.10965 -24.55010 5.72529
624 12 15 0.00000 -12.66769 -24.61510 4.22452
625 12 15 0.00000 -13.23212 -24.65825 2.76498
626 12 15 0.00000 -13.76690 -24.76822 1.16725
627 12 16 0.00000 -14.35460 -24.76638 -0.19534
628 12 15 0.50000 -5.41091 -25.25636 30.82095
629 12 4 -0.70000 -4.51283 -26.10695 31.33547
630 12 12 0.80000 -4.04952 -27.13432 30.59701
631 12 1 -0.60000 -3.13632 -27.89109 30.97030
632 12 15 0.00000 -4.63417 -27.31839 29.30534
633 12 15 0.00000 -5.35056 -27.43266 27.97113
634 12 15 0.00000 -6.12035 -27.55567 26.66871
635 12 15 0.00000 -6.88749 -27.70588 25.36676
636 12 15 0.00000 -7.61364 -27.84922 24.03871
637 12 15 0.00000 -8.28364 -27.95220 22.67624
638 12 15 0.00000 -8.89729 -28.01041 21.28339
639 12 15 0.00000 -9.45545 -28.04533 19.86545
640 12 15 0.00000 -9.95094 -28.08354 18.42295
641 12 15 0.00000 -10.37183 -28.13519 16.95743
642 12 15 0.00000 -10.71641 -28.18383 15.47058
643 12 15 0.00000 -10.99639 -28.19782 13.96796
644 12 15 0.00000 -11.23687 -28.15560 12.45898
645 12 15 0.00000 -11.46354 -28.06313 10.94911
646 12 15 0.00000 -11.68882 -27.94695 9.43793
647 12 15 0.00000 -11.93069 -27.92843 7.93027