created with groupy

12072 atoms
9384 bonds
7092 angles
3832 dihedrals
132 impropers

58 atom types
54 bond types
55 angle types
43 dihedral types
3 improper types

-89.442719 89.442719 xlo xhi
-89.442719 89.442719 ylo yhi
-42.698152 42.698152 zlo zhi

Masses

1 15.9994
2 15.9994
3 15.9994
4 15.9994
5 15.9994
6 14.0067
7 14.0067
8 14.0067
9 14.0067
10 14.0067
11 14.0067
12 12.0110
13 12.0110
14 13.0190
15 14.0270
16 15.0350
17 16.0430
18 14.0270
19 13.0190
20 1.0080
21 1.0080
22 999.0   # dummy, this type not in this system
23 32.0600
24 63.5460
25 63.5460
26 55.8470
27 65.3700
28 24.3050
29 40.0800
30 30.9738
31 39.9480
32 18.9984
33 35.4350
34 79.9040
35 15.0350
36 15.9994
37 22.9898
38 35.4350
39 12.0110
40 35.4350
41 1.0080
42 32.0600
43 15.0350
44 15.9994
45 12.0110
46 35.4350
47 18.9984
48 12.0110
49 14.0270
50 15.9994
51 12.0110
52 15.9994
53 14.0067
54 28.0800
55 999.0   # dummy, this type not in this system
56 999.0   # dummy, this type not in this system
57 15.9994
58 1.0080

Atoms

1 1 16 0.40000 84.89495 -74.94243 36.11084
2 1 16 0.40000 82.78154 -74.11377 36.79916
3 1 16 0.40000 83.29200 -74.30566 34.47323
4 1 8 -0.50000 83.45843 -74.93613 35.78437
5 1 15 0.30000 82.91372 -76.29675 35.80648
6 1 15 0.40000 82.13312 -77.62709 35.77972
7 1 3 -0.80000 81.17877 -78.53367 35.51703
8 1 30 1.70000 80.36656 -78.11227 34.12954
9 1 2 -0.80000 81.09627 -78.78958 32.99631
10 1 2 -0.80000 80.32507 -76.59102 34.18010
11 1 3 -0.70000 78.86711 -78.78267 34.33475
12 1 15 0.40000 77.83065 -78.35708 33.55798
13 1 14 0.30000 76.83809 -77.51471 32.87741
14 1 4 -0.70000 75.93675 -77.90869 31.75630
15 1 12 0.70000 74.52696 -77.98250 31.94561
16 1 1 -0.70000 74.03188 -78.08263 33.06486
17 1 15 0.00000 73.54076 -77.91074 30.71550
18 1 15 0.00000 72.17433 -77.80398 29.49220
19 1 15 0.00000 70.77709 -77.69382 28.28519
20 1 15 0.00000 69.38983 -77.59306 27.05365
21 1 15 0.00000 68.02369 -77.50932 25.79267
22 1 15 0.00000 66.68065 -77.44501 24.50603
23 1 15 0.00000 65.36126 -77.40203 23.19911
24 1 15 0.00000 64.06908 -77.37893 21.87841
25 1 15 0.00000 62.80379 -77.37975 20.55474
26 1 15 0.00000 61.57111 -77.40641 19.23819
27 1 15 0.00000 60.37784 -77.46276 17.93915
28 1 15 0.00000 59.23896 -77.55028 16.66788
29 1 15 0.00000 58.14709 -77.67758 15.43706
30 1 15 0.00000 57.09001 -77.84099 14.24381
31 1 15 0.00000 56.05481 -78.02858 13.08456
32 1 15 0.00000 54.94105 -78.13171 11.81975
33 1 16 0.00000 53.96252 -78.37957 10.73206
34 1 15 0.50000 77.34931 -76.17173 32.87755
35 1 4 -0.70000 78.06939 -75.06596 33.10902
36 1 12 0.80000 77.97029 -74.00567 32.28353
37 1 1 -0.60000 78.52116 -72.91244 32.50116
38 1 15 0.00000 77.15330 -74.16458 31.12104
39 1 15 0.00000 76.28821 -74.46225 29.90885
40 1 15 0.00000 75.46388 -74.80510 28.68128
41 1 15 0.00000 74.65482 -75.13136 27.43825
42 1 15 0.00000 73.81302 -75.42273 26.20617
43 1 15 0.00000 72.90991 -75.68301 25.00930
44 1 15 0.00000 71.94619 -75.91508 23.85286
45 1 15 0.00000 70.93843 -76.10917 22.72589
46 1 15 0.00000 69.90073 -76.24528 21.61574
47 1 15 0.00000 68.83775 -76.30839 20.52319
48 1 15 0.00000 67.74122 -76.30616 19.46045
49 1 15 0.00000 66.59989 -76.26607 18.44445
50 1 15 0.00000 65.41399 -76.22206 17.48097
51 1 15 0.00000 64.19622 -76.19318 16.55585
52 1 15 0.00000 62.96369 -76.17554 15.64564
53 1 15 0.00000 61.79254 -76.12028 14.66726
54 1 16 0.00000 60.51339 -76.12902 13.81031
55 2 16 0.40000 85.44685 80.01356 33.86117
56 2 16 0.40000 83.70649 81.60198 34.13517
57 2 16 0.40000 84.02077 80.52274 32.02713
58 2 8 -0.50000 84.06075 80.33398 33.47869
59 2 15 0.30000 83.14301 79.27769 33.91510
60 2 15 0.40000 82.00647 78.30183 34.28366
61 2 3 -0.80000 80.81638 77.68104 34.28278
62 2 30 1.70000 80.09471 77.84628 32.79473
63 2 2 -0.80000 80.53597 76.65465 31.98186
64 2 2 -0.80000 80.50351 79.24245 32.34520
65 2 3 -0.70000 78.47691 77.74988 33.13138
66 2 15 0.40000 77.57305 78.18341 32.20734
67 2 14 0.30000 76.83809 79.01005 31.24069
68 2 4 -0.70000 75.80572 78.55512 30.26509
69 2 12 0.70000 74.44759 78.96358 30.39704
70 2 1 -0.70000 74.00178 79.38300 31.46155
71 2 15 0.00000 73.46523 78.91672 29.16265
72 2 15 0.00000 72.13045 79.01499 27.90421
73 2 15 0.00000 70.76806 79.13064 26.65849
74 2 15 0.00000 69.41121 79.22693 25.39317
75 2 15 0.00000 68.06806 79.29216 24.10666
76 2 15 0.00000 66.73999 79.32479 22.80340
77 2 15 0.00000 65.42721 79.32471 21.48913
78 2 15 0.00000 64.13391 79.29430 20.16968
79 2 15 0.00000 62.85911 79.23354 18.85657
80 2 15 0.00000 61.60824 79.14231 17.56022
81 2 15 0.00000 60.38717 79.01854 16.29206
82 2 15 0.00000 59.21029 78.85985 15.06299
83 2 15 0.00000 58.06866 78.66477 13.88743
84 2 15 0.00000 56.95156 78.43928 12.76085
85 2 15 0.00000 55.84996 78.19671 11.67533
86 2 15 0.00000 54.69281 78.01872 10.45872
87 2 16 0.00000 53.63126 77.72865 9.46323
88 2 15 0.50000 77.71981 80.06756 30.82934
89 2 4 -0.70000 78.74303 80.92590 30.72413
90 2 12 0.80000 78.91771 81.63940 29.59459
91 2 1 -0.60000 79.77501 82.53156 29.47189
92 2 15 0.00000 78.03270 81.35759 28.50764
93 2 15 0.00000 77.05859 80.94897 27.41652
94 2 15 0.00000 76.10939 80.48278 26.32764
95 2 15 0.00000 75.17886 80.02199 25.21952
96 2 15 0.00000 74.22784 79.60573 24.10874
97 2 15 0.00000 73.22917 79.24685 23.01800
98 2 15 0.00000 72.18292 78.94424 21.95321
99 2 15 0.00000 71.10725 78.69829 20.90167
100 2 15 0.00000 70.02082 78.51870 19.84563
101 2 15 0.00000 68.93254 78.41788 18.78119
102 2 15 0.00000 67.83287 78.39534 17.72193
103 2 15 0.00000 66.70388 78.43517 16.69223
104 2 15 0.00000 65.53612 78.50869 15.70860
105 2 15 0.00000 64.33542 78.59044 14.76452
106 2 15 0.00000 63.11809 78.67126 13.83743
107 2 15 0.00000 61.96696 78.74571 12.83682
108 2 16 0.00000 60.70006 78.83382 11.96627
109 3 16 0.40000 62.69895 -75.25966 34.40533
110 3 16 0.40000 60.64860 -74.23946 35.02360
111 3 16 0.40000 61.13883 -74.64088 32.72015
112 3 8 -0.50000 61.26535 -75.18032 34.07561
113 3 15 0.30000 60.62937 -76.49513 34.19909
114 3 15 0.40000 59.75999 -77.76748 34.27094
115 3 3 -0.80000 58.74548 -78.62428 34.07505
116 3 30 1.70000 57.96025 -78.25466 32.65760
117 3 2 -0.80000 58.63926 -79.06376 31.58068
118 3 2 -0.80000 58.02251 -76.73465 32.59293
119 3 3 -0.70000 56.41919 -78.80403 32.90901
120 3 15 0.40000 55.41210 -78.36882 32.09963
121 3 14 0.30000 54.47741 -77.51471 31.35480
122 3 4 -0.70000 53.54846 -77.93004 30.26435
123 3 12 0.70000 52.13741 -77.89323 30.45506
124 3 1 -0.70000 51.63955 -77.87456 31.57739
125 3 15 0.00000 51.15521 -77.84770 29.22050
126 3 15 0.00000 49.79607 -77.74096 27.98911
127 3 15 0.00000 48.40645 -77.62751 26.77363
128 3 15 0.00000 47.02609 -77.52594 25.53442
129 3 15 0.00000 45.66557 -77.44497 24.26720
130 3 15 0.00000 44.32671 -77.38684 22.97592
131 3 15 0.00000 43.00993 -77.35308 21.66610
132 3 15 0.00000 41.71892 -77.34197 20.34410
133 3 15 0.00000 40.45310 -77.35673 19.02102
134 3 15 0.00000 39.21808 -77.39886 17.70708
135 3 15 0.00000 38.02039 -77.47190 16.41294
136 3 15 0.00000 36.87493 -77.57754 15.14899
137 3 15 0.00000 35.77375 -77.72291 13.92850
138 3 15 0.00000 34.70493 -77.90372 12.74829
139 3 15 0.00000 33.65637 -78.10750 11.60386
140 3 15 0.00000 32.53492 -78.22990 10.34761
141 3 16 0.00000 31.53899 -78.49209 9.27924
142 3 15 0.50000 55.07883 -76.21347 31.25475
143 3 4 -0.70000 55.87308 -75.14494 31.40384
144 3 12 0.80000 55.84424 -74.14580 30.50033
145 3 1 -0.60000 56.46879 -73.07927 30.63613
146 3 15 0.00000 55.01534 -74.33614 29.35107
147 3 15 0.00000 54.12887 -74.66502 28.16262
148 3 15 0.00000 53.27996 -75.04276 26.96235
149 3 15 0.00000 52.44737 -75.40622 25.74545
150 3 15 0.00000 51.58452 -75.73191 24.53675
151 3 15 0.00000 50.66271 -76.01984 23.36065
152 3 15 0.00000 49.68245 -76.27253 22.22257
153 3 15 0.00000 48.66092 -76.48221 21.11090
154 3 15 0.00000 47.61350 -76.63090 20.01154
155 3 15 0.00000 46.54588 -76.70392 18.92415
156 3 15 0.00000 45.44930 -76.70740 17.86145
157 3 15 0.00000 44.31074 -76.66664 16.84240
158 3 15 0.00000 43.12810 -76.61497 15.87528
159 3 15 0.00000 41.91274 -76.57329 14.94750
160 3 15 0.00000 40.68192 -76.54065 14.03538
161 3 15 0.00000 39.51473 -76.47994 13.05260
162 3 16 0.00000 38.23574 -76.46634 12.19548
163 4 16 0.40000 84.25698 -58.53126 34.76403
164 4 16 0.40000 84.19480 -56.77183 33.17422
165 4 16 0.40000 82.96125 -58.78040 32.78522
166 4 8 -0.50000 83.38608 -57.82389 33.80936
167 4 15 0.30000 82.24147 -57.22020 34.49774
168 4 15 0.40000 80.97588 -56.50179 35.00962
169 4 3 -0.80000 79.76991 -55.91267 35.02637
170 4 30 1.70000 78.85467 -56.46406 33.75331
171 4 2 -0.80000 78.09807 -57.66207 34.27079
172 4 2 -0.80000 79.86773 -56.65476 32.63267
173 4 3 -0.70000 77.81608 -55.21218 33.44668
174 4 15 0.40000 77.15122 -55.16893 32.25721
175 4 14 0.30000 76.83809 -55.15403 30.82206
176 4 4 -0.70000 75.49713 -55.31474 30.18919
177 4 12 0.70000 74.88564 -54.23370 29.49191
178 4 1 -0.70000 75.23323 -53.07033 29.67526
179 4 15 0.00000 73.74811 -54.49639 28.42986
180 4 15 0.00000 72.45619 -54.50913 27.12381
181 4 15 0.00000 71.16128 -54.49019 25.80315
182 4 15 0.00000 69.85067 -54.49422 24.48647
183 4 15 0.00000 68.52183 -54.53091 23.18407
184 4 15 0.00000 67.17630 -54.59837 21.90020
185 4 15 0.00000 65.81619 -54.69270 20.63850
186 4 15 0.00000 64.44797 -54.81177 19.40225
187 4 15 0.00000 63.07507 -54.94672 18.19810
188 4 15 0.00000 61.70482 -55.09364 17.03434
189 4 15 0.00000 60.34395 -55.24874 15.92143
190 4 15 0.00000 59.00461 -55.41416 14.87280
191 4 15 0.00000 57.68493 -55.57428 13.89498
192 4 15 0.00000 56.37986 -55.72376 12.97716
193 4 15 0.00000 55.08902 -55.85873 12.10181
194 4 15 0.00000 53.75512 -56.03336 11.08151
195 4 16 0.00000 52.49311 -56.14316 10.30865
196 4 15 0.50000 77.96802 -55.71637 30.13505
197 4 4 -0.70000 79.17545 -56.20723 29.82525
198 4 12 0.80000 79.34827 -56.92444 28.69777
199 4 1 -0.60000 80.45866 -57.31172 28.29399
200 4 15 0.00000 78.17859 -57.21053 27.92698
201 4 15 0.00000 76.86557 -57.47802 27.21227
202 4 15 0.00000 75.53327 -57.77609 26.54886
203 4 15 0.00000 74.21022 -58.09835 25.87667
204 4 15 0.00000 72.90092 -58.39684 25.16381
205 4 15 0.00000 71.60332 -58.63430 24.40507
206 4 15 0.00000 70.31887 -58.80689 23.60483
207 4 15 0.00000 69.05558 -58.93522 22.76165
208 4 15 0.00000 67.82601 -59.04119 21.86459
209 4 15 0.00000 66.64276 -59.12983 20.90562
210 4 15 0.00000 65.50391 -59.18546 19.88987
211 4 15 0.00000 64.39580 -59.18364 18.83699
212 4 15 0.00000 63.29949 -59.11460 17.77399
213 4 15 0.00000 62.20028 -58.99389 16.71721
214 4 15 0.00000 61.09526 -58.85065 15.66538
215 4 15 0.00000 60.00476 -58.80414 14.59743
216 4 16 0.00000 58.89104 -58.58670 13.55676
217 5 16 0.40000 40.14399 9.30521 34.04232
218 5 16 0.40000 39.69878 11.32335 32.87790
219 5 16 0.40000 38.87952 9.24606 32.02879
220 5 8 -0.50000 39.12906 10.01836 33.24762
221 5 15 0.30000 37.90314 10.21649 34.02629
222 5 15 0.40000 36.53200 10.53906 34.65540
223 5 3 -0.80000 35.23387 10.85898 34.77451
224 5 30 1.70000 34.41791 10.43119 33.39118
225 5 2 -0.80000 33.92556 9.02305 33.61519
226 5 2 -0.80000 35.42340 10.69661 32.27896
227 5 3 -0.70000 33.14518 11.48849 33.34459
228 5 15 0.40000 32.45856 11.65989 32.17929
229 5 14 0.30000 32.11673 11.92801 30.77601
230 5 4 -0.70000 30.82045 11.64802 30.09352
231 5 12 0.70000 29.99138 12.71283 29.63789
232 5 1 -0.70000 30.10546 13.85250 30.08058
233 5 15 0.00000 28.90509 12.47026 28.51893
234 5 15 0.00000 27.61251 12.48953 27.21362
235 5 15 0.00000 26.31039 12.54168 25.90097
236 5 15 0.00000 24.99753 12.56790 24.58679
237 5 15 0.00000 23.67360 12.55618 23.27893
238 5 15 0.00000 22.33982 12.50767 21.98201
239 5 15 0.00000 20.99759 12.42574 20.70045
240 5 15 0.00000 19.65287 12.31296 19.43810
241 5 15 0.00000 18.30744 12.17702 18.20344
242 5 15 0.00000 16.96788 12.02128 17.00560
243 5 15 0.00000 15.64027 11.84839 15.85576
244 5 15 0.00000 14.33723 11.65576 14.76681
245 5 15 0.00000 13.05399 11.45650 13.74852
246 5 15 0.00000 11.78430 11.25709 12.79140
247 5 15 0.00000 10.52662 11.06501 11.87923
248 5 15 0.00000 9.23136 10.85843 10.81600
249 5 16 0.00000 7.99924 10.67353 10.00995
250 5 15 0.50000 33.32009 11.76616 30.00745
251 5 4 -0.70000 34.59364 11.60490 29.62422
252 5 12 0.80000 34.88000 11.20239 28.37065
253 5 1 -0.60000 36.03583 11.14151 27.91640
254 5 15 0.00000 33.77334 10.86697 27.52987
255 5 15 0.00000 32.52378 10.50855 26.74467
256 5 15 0.00000 31.26254 10.10581 26.00234
257 5 15 0.00000 30.01495 9.68373 25.24634
258 5 15 0.00000 28.77523 9.29604 24.45620
259 5 15 0.00000 27.53385 8.97905 23.63502
260 5 15 0.00000 26.29157 8.73576 22.78795
261 5 15 0.00000 25.06029 8.54840 21.90923
262 5 15 0.00000 23.85642 8.40095 20.98362
263 5 15 0.00000 22.69311 8.29285 20.00250
264 5 15 0.00000 21.56550 8.23759 18.97427
265 5 15 0.00000 20.45580 8.25147 17.92316
266 5 15 0.00000 19.34412 8.33411 16.87724
267 5 15 0.00000 18.21948 8.46416 15.84869
268 5 15 0.00000 17.08480 8.61349 14.82981
269 5 15 0.00000 15.98315 8.67686 13.77423
270 5 16 0.00000 14.82548 8.89288 12.78238
271 6 16 0.40000 -50.68729 -73.66879 35.88623
272 6 16 0.40000 -52.87752 -74.14982 36.65986
273 6 16 0.40000 -52.56297 -73.07125 34.55152
274 6 8 -0.50000 -52.03177 -74.09166 35.45753
275 6 15 0.30000 -51.98419 -75.41155 34.82185
276 6 15 0.40000 -52.16858 -76.77949 34.13294
277 6 3 -0.80000 -52.70335 -77.77182 33.40425
278 6 30 1.70000 -53.74764 -77.14291 32.27451
279 6 2 -0.80000 -52.92310 -76.89475 31.03596
280 6 2 -0.80000 -54.38670 -75.95971 32.98874
281 6 3 -0.70000 -54.82787 -78.36977 32.01412
282 6 15 0.40000 -56.01861 -78.09711 31.40870
283 6 14 0.30000 -57.32599 -77.51471 31.07778
284 6 4 -0.70000 -58.10061 -77.69423 29.81593
285 6 12 0.70000 -59.33835 -78.39906 29.81416
286 6 1 -0.70000 -59.64050 -79.17209 30.71914
287 6 15 0.00000 -60.38660 -78.19000 28.65296
288 6 15 0.00000 -61.79488 -78.10736 27.47614
289 6 15 0.00000 -63.23103 -78.04145 26.31234
290 6 15 0.00000 -64.65672 -77.96828 25.12348
291 6 15 0.00000 -66.05925 -77.88733 23.90292
292 6 15 0.00000 -67.43548 -77.80142 22.65314
293 6 15 0.00000 -68.78363 -77.71427 21.37816
294 6 15 0.00000 -70.10038 -77.62613 20.08475
295 6 15 0.00000 -71.38338 -77.54519 18.78074
296 6 15 0.00000 -72.62564 -77.47516 17.47484
297 6 15 0.00000 -73.81842 -77.42103 16.17526
298 6 15 0.00000 -74.94646 -77.38255 14.89195
299 6 15 0.00000 -76.01183 -77.37520 13.63169
300 6 15 0.00000 -77.02740 -77.39963 12.39235
301 6 15 0.00000 -78.01007 -77.44980 11.17475
302 6 15 0.00000 -79.10835 -77.41672 9.89275
303 6 16 0.00000 -80.00832 -77.52440 8.71781
304 6 15 0.50000 -57.39490 -76.23218 31.72222
305 6 4 -0.70000 -57.15621 -75.15936 32.48831
306 6 12 0.80000 -57.74978 -73.98174 32.21200
307 6 1 -0.60000 -57.66175 -72.98029 32.94367
308 6 15 0.00000 -58.54519 -73.92049 31.02554
309 6 15 0.00000 -59.33404 -73.96790 29.72868
310 6 15 0.00000 -60.06922 -74.02854 28.40210
311 6 15 0.00000 -60.79859 -74.06294 27.07056
312 6 15 0.00000 -61.57065 -74.08719 25.76103
313 6 15 0.00000 -62.40756 -74.12647 24.49064
314 6 15 0.00000 -63.30704 -74.18515 23.26285
315 6 15 0.00000 -64.25893 -74.24390 22.07383
316 6 15 0.00000 -65.25959 -74.27544 20.92254
317 6 15 0.00000 -66.31066 -74.26621 19.81677
318 6 15 0.00000 -67.41546 -74.23104 18.76320
319 6 15 0.00000 -68.57162 -74.20399 17.76368
320 6 15 0.00000 -69.76486 -74.21479 16.80835
321 6 15 0.00000 -70.97738 -74.26743 15.87740
322 6 15 0.00000 -72.19743 -74.34157 14.95332
323 6 15 0.00000 -73.38315 -74.33088 13.99113
324 6 16 0.00000 -74.62999 -74.46836 13.09830
325 7 16 0.40000 -3.92312 79.41756 33.61316
326 7 16 0.40000 -5.48983 81.19683 33.69431
327 7 16 0.40000 -5.30023 79.85811 31.72473
328 7 8 -0.50000 -5.27128 79.83274 33.18856
329 7 15 0.30000 -6.28990 78.93268 33.73700
330 7 15 0.40000 -7.51830 78.12682 34.20758
331 7 3 -0.80000 -8.76575 77.63526 34.27040
332 7 30 1.70000 -9.47540 77.70310 32.76901
333 7 2 -0.80000 -9.16340 76.38776 32.09970
334 7 2 -0.80000 -8.92828 78.98970 32.16585
335 7 3 -0.70000 -11.09255 77.81202 33.10494
336 7 15 0.40000 -11.95262 78.22788 32.13226
337 7 14 0.30000 -12.60463 79.01005 31.07348
338 7 4 -0.70000 -13.68390 78.55525 30.14998
339 7 12 0.70000 -14.99221 79.11313 30.22659
340 7 1 -0.70000 -15.38641 79.69450 31.23379
341 7 15 0.00000 -15.98142 79.02699 28.99982
342 7 15 0.00000 -17.30647 79.11766 27.73056
343 7 15 0.00000 -18.65711 79.22978 26.47180
344 7 15 0.00000 -20.00434 79.31997 25.19580
345 7 15 0.00000 -21.34126 79.37564 23.90236
346 7 15 0.00000 -22.66662 79.39565 22.59609
347 7 15 0.00000 -23.98018 79.38052 21.28269
348 7 15 0.00000 -25.27751 79.33283 19.96771
349 7 15 0.00000 -26.55950 79.25397 18.66259
350 7 15 0.00000 -27.82073 79.14446 17.37775
351 7 15 0.00000 -29.05548 79.00294 16.12478
352 7 15 0.00000 -30.24962 78.82683 14.91488
353 7 15 0.00000 -31.41211 78.61725 13.76249
354 7 15 0.00000 -32.55304 78.38068 12.66237
355 7 15 0.00000 -33.68005 78.13031 11.60507
356 7 15 0.00000 -34.85647 77.93453 10.40987
357 7 16 0.00000 -35.94800 77.64337 9.44767
358 7 15 0.50000 -11.62158 79.91785 30.54960
359 7 4 -0.70000 -10.51639 80.64919 30.35335
360 7 12 0.80000 -10.27613 81.20776 29.15097
361 7 1 -0.60000 -9.33262 81.98754 28.93253
362 7 15 0.00000 -11.19173 80.89626 28.09799
363 7 15 0.00000 -12.20898 80.46809 27.05479
364 7 15 0.00000 -13.20734 79.98074 26.02051
365 7 15 0.00000 -14.18670 79.49462 24.96662
366 7 15 0.00000 -15.18188 79.05430 23.90489
367 7 15 0.00000 -16.21847 78.67785 22.85626
368 7 15 0.00000 -17.29646 78.36484 21.82672
369 7 15 0.00000 -18.39783 78.11234 20.80372
370 7 15 0.00000 -19.50312 77.92602 19.76864
371 7 15 0.00000 -20.60223 77.81675 18.71622
372 7 15 0.00000 -21.70462 77.78661 17.65998
373 7 15 0.00000 -22.82960 77.82448 16.62584
374 7 15 0.00000 -23.98943 77.90485 15.63339
375 7 15 0.00000 -25.18094 78.00123 14.67911
376 7 15 0.00000 -26.38900 78.10034 13.74171
377 7 15 0.00000 -27.53229 78.17799 12.73239
378 7 16 0.00000 -28.78857 78.29583 11.85005
379 8 16 0.40000 -53.50701 81.09698 40.72211
380 8 16 0.40000 -54.47765 79.01192 40.14125
381 8 16 0.40000 -55.64211 81.04526 39.67551
382 8 8 -0.50000 -54.32357 80.40908 39.70710
383 8 15 0.30000 -53.66837 80.45049 38.39658
384 8 15 0.40000 -53.16288 80.36688 36.94147
385 8 3 -0.80000 -53.15312 80.21351 35.60803
386 8 30 1.70000 -54.65794 80.55357 34.98976
387 8 2 -0.80000 -54.65082 82.02532 34.65905
388 8 2 -0.80000 -55.61446 80.03833 36.05657
389 8 3 -0.70000 -54.72551 79.64974 33.60470
390 8 15 0.40000 -55.93287 79.41203 33.01773
391 8 14 0.30000 -57.32599 79.01005 32.78204
392 8 4 -0.70000 -58.17541 79.34693 31.60325
393 8 12 0.70000 -58.59675 78.33404 30.69480
394 8 1 -0.70000 -58.01798 77.25354 30.62139
395 8 15 0.00000 -59.84957 78.55541 29.76079
396 8 15 0.00000 -61.27966 78.51863 28.60819
397 8 15 0.00000 -62.71431 78.44960 27.44273
398 8 15 0.00000 -64.15461 78.40715 26.27009
399 8 15 0.00000 -65.59419 78.40415 25.09067
400 8 15 0.00000 -67.02823 78.43989 23.90510
401 8 15 0.00000 -68.45182 78.51146 22.71390
402 8 15 0.00000 -69.86021 78.61613 21.52227
403 8 15 0.00000 -71.24397 78.74719 20.33017
404 8 15 0.00000 -72.59296 78.90173 19.14280
405 8 15 0.00000 -73.89517 79.07786 17.96476
406 8 15 0.00000 -75.13678 79.27831 16.80757
407 8 15 0.00000 -76.30716 79.49194 15.66395
408 8 15 0.00000 -77.41566 79.71188 14.52781
409 8 15 0.00000 -78.47762 79.92888 13.39827
410 8 15 0.00000 -79.69454 80.14543 12.24804
411 8 16 0.00000 -80.64808 80.36581 11.13259
412 8 15 0.50000 -57.96960 78.93670 34.06474
413 8 4 -0.70000 -58.22490 78.90328 35.37947
414 8 12 0.80000 -59.47640 79.10998 35.83386
415 8 1 -0.60000 -59.80352 78.98202 37.02660
416 8 15 0.00000 -60.46734 79.46013 34.86456
417 8 15 0.00000 -61.42186 79.85612 33.75169
418 8 15 0.00000 -62.34037 80.30250 32.62872
419 8 15 0.00000 -63.27305 80.76468 31.52299
420 8 15 0.00000 -64.23468 81.18778 30.42399
421 8 15 0.00000 -65.21913 81.53749 29.31746
422 8 15 0.00000 -66.22090 81.81140 28.20327
423 8 15 0.00000 -67.24637 82.02496 27.09597
424 8 15 0.00000 -68.31057 82.19020 26.01525
425 8 15 0.00000 -69.42063 82.30508 24.97499
426 8 15 0.00000 -70.56726 82.35792 23.96788
427 8 15 0.00000 -71.72666 82.33772 22.97198
428 8 15 0.00000 -72.87338 82.25061 21.96496
429 8 15 0.00000 -73.99901 82.12043 20.93752
430 8 15 0.00000 -75.11404 81.97361 19.89680
431 8 15 0.00000 -76.27135 81.90315 18.90306
432 8 16 0.00000 -77.35469 81.69659 17.82864
433 9 16 0.40000 -27.11043 31.40260 36.23264
434 9 16 0.40000 -27.43127 33.35898 34.93010
435 9 16 0.40000 -28.38049 31.28302 34.22532
436 9 8 -0.50000 -28.08056 32.12090 35.38819
437 9 15 0.30000 -29.29002 32.44872 36.14858
438 9 15 0.40000 -30.63698 32.89914 36.75083
439 9 3 -0.80000 -31.91234 33.30698 36.84465
440 9 30 1.70000 -32.75642 32.83608 35.49255
441 9 2 -0.80000 -33.33525 31.48036 35.81260
442 9 2 -0.80000 -31.73874 32.96041 34.36679
443 9 3 -0.70000 -33.96074 33.96501 35.36998
444 9 15 0.40000 -34.63785 34.09771 34.19412
445 9 14 0.30000 -34.96531 34.28869 32.77489
446 9 4 -0.70000 -36.27802 34.04354 32.11064
447 9 12 0.70000 -37.03997 35.12387 31.58046
448 9 1 -0.70000 -36.85398 36.28215 31.94330
449 9 15 0.00000 -38.14171 34.87259 30.47867
450 9 15 0.00000 -39.43340 34.88196 29.17236
451 9 15 0.00000 -40.73257 34.92416 27.85643
452 9 15 0.00000 -42.04407 34.94111 26.54075
453 9 15 0.00000 -43.36899 34.92141 25.23399
454 9 15 0.00000 -44.70600 34.86646 23.94066
455 9 15 0.00000 -46.05351 34.77982 22.66496
456 9 15 0.00000 -47.40538 34.66396 21.41055
457 9 15 0.00000 -48.75935 34.52700 20.18538
458 9 15 0.00000 -50.10862 34.37251 18.99831
459 9 15 0.00000 -51.44693 34.20354 17.86035
460 9 15 0.00000 -52.76181 34.01759 16.78456
461 9 15 0.00000 -54.05720 33.82872 15.77976
462 9 15 0.00000 -55.33894 33.64308 14.83602
463 9 15 0.00000 -56.60813 33.46712 13.93664
464 9 15 0.00000 -57.91606 33.26858 12.88749
465 9 16 0.00000 -59.15907 33.10553 12.09353
466 9 15 0.50000 -33.77607 33.99910 32.02201
467 9 4 -0.70000 -32.51591 33.73244 31.65365
468 9 12 0.80000 -32.25797 33.22686 30.43164
469 9 1 -0.60000 -31.10919 33.06257 29.98522
470 9 15 0.00000 -33.38524 32.90370 29.61374
471 9 15 0.00000 -34.65644 32.57042 28.85259
472 9 15 0.00000 -35.94198 32.19671 28.13724
473 9 15 0.00000 -37.21512 31.80195 27.40962
474 9 15 0.00000 -38.47835 31.43857 26.64559
475 9 15 0.00000 -39.73888 31.14353 25.84568
476 9 15 0.00000 -40.99577 30.92013 25.01482
477 9 15 0.00000 -42.23825 30.74954 24.14854
478 9 15 0.00000 -43.45098 30.61371 23.23278
479 9 15 0.00000 -44.62089 30.51069 22.25900
480 9 15 0.00000 -45.75198 30.45477 21.23463
481 9 15 0.00000 -46.86093 30.46498 20.18268
482 9 15 0.00000 -47.96755 30.54415 19.13114
483 9 15 0.00000 -49.08410 30.67253 18.09361
484 9 15 0.00000 -50.20945 30.82140 17.06436
485 9 15 0.00000 -51.30727 30.88008 16.00454
486 9 16 0.00000 -52.45135 31.09866 14.99759
487 10 16 0.40000 -74.80151 -29.26109 39.55593
488 10 16 0.40000 -76.48280 -30.92145 39.76432
489 10 16 0.40000 -76.88994 -28.96344 38.45750
490 10 8 -0.50000 -75.88039 -29.95573 38.83225
491 10 15 0.30000 -75.35131 -30.66183 37.66180
492 10 15 0.40000 -75.01657 -31.47817 36.39634
493 10 3 -0.80000 -75.16003 -32.13230 35.23306
494 10 30 1.70000 -76.49088 -31.55548 34.42158
495 10 2 -0.80000 -75.99178 -30.43431 33.54447
496 10 2 -0.80000 -77.48567 -31.24192 35.53088
497 10 3 -0.70000 -76.97392 -32.84135 33.49794
498 10 15 0.40000 -78.22775 -32.84857 32.96259
499 10 14 0.30000 -79.68667 -32.79335 32.79997
500 10 4 -0.70000 -80.44840 -32.66809 31.52380
501 10 12 0.70000 -81.26467 -33.73660 31.05395
502 10 1 -0.70000 -81.10941 -34.88820 31.45091
503 10 15 0.00000 -82.42538 -33.47249 30.01764
504 10 15 0.00000 -83.85838 -33.45112 28.86828
505 10 15 0.00000 -85.30794 -33.46060 27.71937
506 10 15 0.00000 -86.75395 -33.44827 26.55308
507 10 15 0.00000 -88.18594 -33.40528 25.36523
508 10 15 0.00000 -89.59961 -33.33365 24.15703
509 10 15 0.00000 -90.99135 -33.23738 22.93047
510 10 15 0.00000 -92.35732 -33.11845 21.69171
511 10 15 0.00000 -93.69105 -32.98590 20.44407
512 10 15 0.00000 -94.98375 -32.84372 19.19417
513 10 15 0.00000 -96.22451 -32.69597 17.94788
514 10 15 0.00000 -97.39861 -32.54066 16.71572
515 10 15 0.00000 -98.50061 -32.39386 15.49615
516 10 15 0.00000 -99.54207 -32.26051 14.28556
517 10 15 0.00000 -100.54064 -32.14343 13.08562
518 10 15 0.00000 -101.68554 -31.98037 11.85540
519 10 16 0.00000 -102.58068 -31.89301 10.67509
520 10 15 0.50000 -80.21821 -32.12935 33.95821
521 10 4 -0.70000 -80.37092 -31.55526 35.15900
522 10 12 0.80000 -81.43279 -30.76251 35.40278
523 10 1 -0.60000 -81.69477 -30.29125 36.52317
524 10 15 0.00000 -82.30644 -30.49453 34.30322
525 10 15 0.00000 -83.14063 -30.25634 33.05672
526 10 15 0.00000 -83.92426 -29.99184 31.78394
527 10 15 0.00000 -84.71430 -29.70220 30.51978
528 10 15 0.00000 -85.54456 -29.43302 29.27490
529 10 15 0.00000 -86.42248 -29.22124 28.05005
530 10 15 0.00000 -87.34375 -29.07087 26.84645
531 10 15 0.00000 -88.30782 -28.96085 25.67097
532 10 15 0.00000 -89.32305 -28.86800 24.53586
533 10 15 0.00000 -90.39578 -28.78612 23.45414
534 10 15 0.00000 -91.52197 -28.73127 22.42433
535 10 15 0.00000 -92.68492 -28.72973 21.43236
536 10 15 0.00000 -93.86034 -28.79392 20.45723
537 10 15 0.00000 -95.03273 -28.91015 19.48171
538 10 15 0.00000 -96.20204 -29.04946 18.50129
539 10 15 0.00000 -97.38054 -29.09059 17.53106
540 10 16 0.00000 -98.54375 -29.30501 16.54535
541 11 16 0.40000 40.00158 -29.94961 35.03738
542 11 16 0.40000 37.84144 -29.30706 35.77759
543 11 16 0.40000 38.35784 -29.30203 33.44507
544 11 8 -0.50000 38.56682 -30.01140 34.70895
545 11 15 0.30000 38.10949 -31.40198 34.63402
546 11 15 0.40000 37.41472 -32.77393 34.51195
547 11 3 -0.80000 36.51915 -33.71843 34.18396
548 11 30 1.70000 35.67877 -33.25274 32.82777
549 11 2 -0.80000 36.44741 -33.80099 31.65130
550 11 2 -0.80000 35.54107 -31.74452 32.98518
551 11 3 -0.70000 34.22528 -34.02960 32.98192
552 11 15 0.40000 33.16220 -33.61693 32.23472
553 11 14 0.30000 32.11673 -32.79335 31.61292
554 11 4 -0.70000 31.23966 -33.16377 30.46485
555 11 12 0.70000 29.83782 -33.33993 30.64534
556 11 1 -0.70000 29.35258 -33.54976 31.75365
557 11 15 0.00000 28.84631 -33.24441 29.42112
558 11 15 0.00000 27.47312 -33.13862 28.20532
559 11 15 0.00000 26.06902 -33.03255 27.00594
560 11 15 0.00000 24.67541 -32.93348 25.78144
561 11 15 0.00000 23.30389 -32.84794 24.52644
562 11 15 0.00000 21.95661 -32.77847 23.24451
563 11 15 0.00000 20.63422 -32.72732 21.94092
564 11 15 0.00000 19.34023 -32.69325 20.62223
565 11 15 0.00000 18.07458 -32.68109 19.29896
566 11 15 0.00000 16.84313 -32.69308 17.98105
567 11 15 0.00000 15.65293 -32.73337 16.67860
568 11 15 0.00000 14.51904 -32.80319 15.40178
569 11 15 0.00000 13.43469 -32.91249 14.16261
570 11 15 0.00000 12.38742 -33.05817 12.95847
571 11 15 0.00000 11.36360 -33.22892 11.78657
572 11 15 0.00000 10.25579 -33.31316 10.51516
573 11 16 0.00000 9.29251 -33.54536 9.41053
574 11 15 0.50000 32.54181 -31.42402 31.70873
575 11 4 -0.70000 33.19087 -30.29388 32.01905
576 11 12 0.80000 33.02294 -29.18653 31.27003
577 11 1 -0.60000 33.50390 -28.07862 31.56529
578 11 15 0.00000 32.21506 -29.31468 30.09741
579 11 15 0.00000 31.36787 -29.58052 28.86534
580 11 15 0.00000 30.56418 -29.88766 27.61485
581 11 15 0.00000 29.77464 -30.17624 26.35014
582 11 15 0.00000 28.95025 -30.43293 25.09872
583 11 15 0.00000 28.06278 -30.66503 23.88449
584 11 15 0.00000 27.11312 -30.87574 22.71242
585 11 15 0.00000 26.11718 -31.05350 21.57234
586 11 15 0.00000 25.08771 -31.17662 20.45304
587 11 15 0.00000 24.02843 -31.22992 19.35639
588 11 15 0.00000 22.93158 -31.22239 18.29399
589 11 15 0.00000 21.78774 -31.18330 17.28079
590 11 15 0.00000 20.59928 -31.14683 16.32014
591 11 15 0.00000 19.38007 -31.13014 15.39663
592 11 15 0.00000 18.14687 -31.12662 14.48716
593 11 15 0.00000 16.97238 -31.07698 13.51249
594 11 16 0.00000 15.69444 -31.10642 12.65420
595 12 16 0.40000 -6.15356 -59.05271 35.66470
596 12 16 0.40000 -5.82345 -57.86300 33.63921
597 12 16 0.40000 -7.54375 -59.51374 33.79080
598 12 8 -0.50000 -6.84987 -58.44759 34.51613
599 12 15 0.30000 -7.77500 -57.40121 34.96075
600 12 15 0.40000 -8.79430 -56.26804 35.19910
601 12 3 -0.80000 -9.80781 -55.41032 35.00211
602 12 30 1.70000 -10.88113 -56.04740 33.90461
603 12 2 -0.80000 -11.89901 -56.81361 34.71227
604 12 2 -0.80000 -9.99373 -56.80138 32.92354
605 12 3 -0.70000 -11.57558 -54.71206 33.21577
606 12 15 0.40000 -12.25171 -54.84002 32.03882
607 12 14 0.30000 -12.60463 -55.15403 30.64786
608 12 4 -0.70000 -13.96500 -55.13922 30.03655
609 12 12 0.70000 -14.30538 -54.18206 29.03816
610 12 1 -0.70000 -13.66495 -53.14399 28.89630
611 12 15 0.00000 -15.51156 -54.43553 28.05236
612 12 15 0.00000 -16.81213 -54.48789 26.75592
613 12 15 0.00000 -18.10805 -54.51436 25.43638
614 12 15 0.00000 -19.42485 -54.55692 24.12659
615 12 15 0.00000 -20.76709 -54.62092 22.83906
616 12 15 0.00000 -22.13262 -54.70381 21.57740
617 12 15 0.00000 -23.51827 -54.80151 20.34407
618 12 15 0.00000 -24.91713 -54.91274 19.14184
619 12 15 0.00000 -26.32336 -55.02833 17.97470
620 12 15 0.00000 -27.72856 -55.14418 16.84976
621 12 15 0.00000 -29.12487 -55.25554 15.77622
622 12 15 0.00000 -30.50060 -55.36366 14.76800
623 12 15 0.00000 -31.85330 -55.45180 13.82685
624 12 15 0.00000 -33.18690 -55.51680 12.94071
625 12 15 0.00000 -34.50143 -55.55994 12.09168
626 12 15 0.00000 -35.87319 -55.66992 11.11342
627 12 16 0.00000 -37.14956 -55.66808 10.35651
628 12 15 0.50000 -11.68305 -56.15806 30.19224
629 12 4 -0.70000 -10.65405 -57.00865 30.08062
630 12 12 0.80000 -10.71329 -58.03602 29.21087
631 12 1 -0.60000 -9.75508 -58.79279 28.97610
632 12 15 0.00000 -11.94551 -58.22009 28.50953
633 12 15 0.00000 -13.30931 -58.33436 27.85122
634 12 15 0.00000 -14.69762 -58.45737 27.25001
635 12 15 0.00000 -16.08352 -58.60758 26.64763
636 12 15 0.00000 -17.45159 -58.75092 26.00003
637 12 15 0.00000 -18.79447 -58.85390 25.29159
638 12 15 0.00000 -20.10963 -58.91211 24.52544
639 12 15 0.00000 -21.39463 -58.94703 23.70638
640 12 15 0.00000 -22.64337 -58.98524 22.83062
641 12 15 0.00000 -23.84529 -59.03689 21.89238
642 12 15 0.00000 -24.99801 -59.08553 20.89203
643 12 15 0.00000 -26.10774 -59.09952 19.84095