created with groupy

12072 atoms
9384 bonds
7092 angles
3832 dihedrals
132 impropers

58 atom types
54 bond types
55 angle types
43 dihedral types
3 improper types

-25.298221 25.298221 xlo xhi
-25.298221 25.298221 ylo yhi
-56.519695 56.519695 zlo zhi

Masses

1 15.9994
2 15.9994
3 15.9994
4 15.9994
5 15.9994
6 14.0067
7 14.0067
8 14.0067
9 14.0067
10 14.0067
11 14.0067
12 12.0110
13 12.0110
14 13.0190
15 14.0270
16 15.0350
17 16.0430
18 14.0270
19 13.0190
20 1.0080
21 1.0080
22 999.0   # dummy, this type not in this system
23 32.0600
24 63.5460
25 63.5460
26 55.8470
27 65.3700
28 24.3050
29 40.0800
30 30.9738
31 39.9480
32 18.9984
33 35.4350
34 79.9040
35 15.0350
36 15.9994
37 22.9898
38 35.4350
39 12.0110
40 35.4350
41 1.0080
42 32.0600
43 15.0350
44 15.9994
45 12.0110
46 35.4350
47 18.9984
48 12.0110
49 14.0270
50 15.9994
51 12.0110
52 15.9994
53 14.0067
54 28.0800
55 999.0   # dummy, this type not in this system
56 999.0   # dummy, this type not in this system
57 15.9994
58 1.0080

Atoms

1 1 16 0.40000 25.32923 -18.81600 40.22902
2 1 16 0.40000 23.21486 -17.98733 39.54364
3 1 16 0.40000 24.99498 -18.17923 37.96197
4 1 8 -0.50000 24.35896 -18.80970 39.12053
5 1 15 0.30000 23.90528 -20.17031 38.81825
6 1 15 0.40000 23.28949 -21.50065 38.33777
7 1 3 -0.80000 22.67182 -22.40723 37.56429
8 1 30 1.70000 22.83026 -21.98584 35.96439
9 1 2 -0.80000 24.08671 -22.66315 35.47650
10 1 2 -0.80000 22.76698 -20.46459 35.98091
11 1 3 -0.70000 21.49657 -22.65624 35.24905
12 1 15 0.40000 21.11463 -22.23064 34.01141
13 1 14 0.30000 20.71166 -21.38828 32.87741
14 1 4 -0.70000 20.64142 -21.78225 31.44062
15 1 12 0.70000 19.38961 -21.85607 30.76512
16 1 1 -0.70000 18.33120 -21.95619 31.37961
17 1 15 0.00000 19.31480 -21.78431 29.19026
18 1 15 0.00000 18.92837 -21.67755 27.39743
19 1 15 0.00000 18.50744 -21.56738 25.59966
20 1 15 0.00000 18.10901 -21.46663 23.78791
21 1 15 0.00000 17.74496 -21.38288 21.96476
22 1 15 0.00000 17.41470 -21.31857 20.13443
23 1 15 0.00000 17.11546 -21.27560 18.30159
24 1 15 0.00000 16.84636 -21.25249 16.47359
25 1 15 0.00000 16.60075 -21.25331 14.65900
26 1 15 0.00000 16.37735 -21.27997 12.86934
27 1 15 0.00000 16.17552 -21.33632 11.11701
28 1 15 0.00000 16.00139 -21.42384 9.41911
29 1 15 0.00000 15.84150 -21.55115 7.78157
30 1 15 0.00000 15.68768 -21.71456 6.19488
31 1 15 0.00000 15.53158 -21.90214 4.64855
32 1 15 0.00000 15.37396 -22.00528 2.97065
33 1 16 0.00000 15.22164 -22.25313 1.51552
34 1 15 0.50000 21.12516 -20.04529 33.17801
35 1 4 -0.70000 21.57166 -18.93952 33.78852
36 1 12 0.80000 21.97670 -17.87924 33.06244
37 1 1 -0.60000 22.29445 -16.78600 33.56230
38 1 15 0.00000 21.99904 -18.03815 31.64175
39 1 15 0.00000 22.01167 -18.33582 30.15258
40 1 15 0.00000 22.06632 -18.67866 28.67493
41 1 15 0.00000 22.14241 -19.00492 27.19374
42 1 15 0.00000 22.18558 -19.29629 25.70217
43 1 15 0.00000 22.15845 -19.55657 24.20305
44 1 15 0.00000 22.05852 -19.78865 22.70101
45 1 15 0.00000 21.90565 -19.98274 21.19692
46 1 15 0.00000 21.71866 -20.11885 19.68884
47 1 15 0.00000 21.50088 -20.18196 18.18016
48 1 15 0.00000 21.23843 -20.17973 16.67585
49 1 15 0.00000 20.91226 -20.13964 15.18304
50 1 15 0.00000 20.51917 -20.09562 13.70651
51 1 15 0.00000 20.07774 -20.06674 12.24229
52 1 15 0.00000 19.61562 -20.04910 10.78144
53 1 15 0.00000 19.24321 -19.99385 9.30153
54 1 16 0.00000 18.71205 -20.00258 7.85639
55 2 16 0.40000 26.13601 23.88712 38.42080
56 2 16 0.40000 24.56698 25.47554 37.61951
57 2 16 0.40000 26.06031 24.39631 36.09880
58 2 8 -0.50000 25.23945 24.20755 37.29664
59 2 15 0.30000 24.24046 23.15125 37.11027
60 2 15 0.40000 23.10435 22.17539 36.74040
61 2 3 -0.80000 22.14207 21.55461 36.04017
62 2 30 1.70000 22.43287 21.71984 34.41213
63 2 2 -0.80000 23.26765 20.52821 34.01387
64 2 2 -0.80000 23.02782 23.11601 34.28874
65 2 3 -0.70000 20.92617 21.62344 33.73356
66 2 15 0.40000 20.73807 22.05697 32.45473
67 2 14 0.30000 20.71166 22.88361 31.24069
68 2 4 -0.70000 20.44989 22.42868 29.84460
69 2 12 0.70000 19.27359 22.83714 29.15306
70 2 1 -0.70000 18.28721 23.25656 29.75223
71 2 15 0.00000 19.20439 22.79028 27.57700
72 2 15 0.00000 18.86422 22.88855 25.77434
73 2 15 0.00000 18.49424 23.00421 23.96574
74 2 15 0.00000 18.14027 23.10050 22.14454
75 2 15 0.00000 17.80983 23.16572 20.31424
76 2 15 0.00000 17.50144 23.19835 18.47926
77 2 15 0.00000 17.21188 23.19827 16.64437
78 2 15 0.00000 16.94113 23.16787 14.81672
79 2 15 0.00000 16.68163 23.10711 13.00509
80 2 15 0.00000 16.43162 23.01588 11.22108
81 2 15 0.00000 16.18916 22.89211 9.47739
82 2 15 0.00000 15.95948 22.73341 7.79130
83 2 15 0.00000 15.72686 22.53834 6.16921
84 2 15 0.00000 15.48529 22.31285 4.60117
85 2 15 0.00000 15.23213 22.07027 3.07547
86 2 15 0.00000 15.01109 21.89228 1.41105
87 2 16 0.00000 14.73740 21.60221 -0.01828
88 2 15 0.50000 21.66676 23.94112 31.42616
89 2 4 -0.70000 22.55641 24.79946 31.94248
90 2 12 0.80000 23.36165 25.51296 31.13133
91 2 1 -0.60000 24.12735 26.40513 31.53598
92 2 15 0.00000 23.28456 25.23116 29.73178
93 2 15 0.00000 23.13783 24.82253 28.27648
94 2 15 0.00000 23.00994 24.35635 26.83763
95 2 15 0.00000 22.90846 23.89556 25.39419
96 2 15 0.00000 22.79197 23.47929 23.93655
97 2 15 0.00000 22.62515 23.12041 22.46713
98 2 15 0.00000 22.40459 22.81781 20.99072
99 2 15 0.00000 22.15243 22.57185 19.50774
100 2 15 0.00000 21.89421 22.39227 18.01480
101 2 15 0.00000 21.63944 22.29144 16.51398
102 2 15 0.00000 21.37241 22.26890 15.01064
103 2 15 0.00000 21.06428 22.30873 13.51400
104 2 15 0.00000 20.69770 22.38226 12.03183
105 2 15 0.00000 20.28123 22.46400 10.56231
106 2 15 0.00000 19.84132 22.54482 9.09674
107 2 15 0.00000 19.49818 22.61927 7.61061
108 2 16 0.00000 18.98494 22.70739 6.16166
109 3 16 0.40000 19.24540 -19.13323 38.65523
110 3 16 0.40000 17.22323 -18.11302 37.95026
111 3 16 0.40000 18.97377 -18.51445 36.37488
112 3 8 -0.50000 18.27940 -19.05388 37.54583
113 3 15 0.30000 17.69230 -20.36870 37.27191
114 3 15 0.40000 16.94673 -21.64105 36.81903
115 3 3 -0.80000 16.24112 -22.49784 36.06424
116 3 30 1.70000 16.43901 -22.12822 34.45595
117 3 2 -0.80000 17.62134 -22.93732 33.98381
118 3 2 -0.80000 16.52739 -20.60821 34.44023
119 3 3 -0.70000 15.04449 -22.67760 33.75353
120 3 15 0.40000 14.70548 -22.24239 32.50677
121 3 14 0.30000 14.38710 -21.38828 31.35480
122 3 4 -0.70000 14.27651 -21.80360 29.92658
123 3 12 0.70000 13.02286 -21.76679 29.25148
124 3 1 -0.70000 11.96038 -21.74812 29.86682
125 3 15 0.00000 12.95389 -21.72126 27.67537
126 3 15 0.00000 12.57811 -21.61452 25.88027
127 3 15 0.00000 12.16833 -21.50107 24.08013
128 3 15 0.00000 11.77999 -21.39951 22.26624
129 3 15 0.00000 11.42415 -21.31854 20.44134
130 3 15 0.00000 11.09999 -21.26040 18.60971
131 3 15 0.00000 10.80459 -21.22664 16.77606
132 3 15 0.00000 10.53719 -21.21554 14.94770
133 3 15 0.00000 10.29081 -21.23029 13.13328
134 3 15 0.00000 10.06397 -21.27243 11.34435
135 3 15 0.00000 9.85569 -21.34546 9.59339
136 3 15 0.00000 9.67193 -21.45111 7.89754
137 3 15 0.00000 9.49844 -21.59647 6.26289
138 3 15 0.00000 9.32745 -21.77728 4.67984
139 3 15 0.00000 9.15183 -21.98106 3.13766
140 3 15 0.00000 8.98297 -22.10346 1.46215
141 3 16 0.00000 8.80522 -22.36565 0.01243
142 3 15 0.50000 14.93246 -20.08703 31.62736
143 3 4 -0.70000 15.48739 -19.01851 32.21483
144 3 12 0.80000 15.99513 -18.01936 31.46692
145 3 1 -0.60000 16.42058 -16.95283 31.94388
146 3 15 0.00000 16.00006 -18.20971 30.04993
147 3 15 0.00000 15.98144 -18.53858 28.56740
148 3 15 0.00000 16.00015 -18.91632 27.09739
149 3 15 0.00000 16.04185 -19.27979 25.62351
150 3 15 0.00000 16.05425 -19.60548 24.13848
151 3 15 0.00000 15.99979 -19.89340 22.64517
152 3 15 0.00000 15.87568 -20.14610 21.14826
153 3 15 0.00000 15.70267 -20.35577 19.64846
154 3 15 0.00000 15.50148 -20.50446 18.14340
155 3 15 0.00000 15.27691 -20.57749 16.63616
156 3 15 0.00000 15.01440 -20.58097 15.13186
157 3 15 0.00000 14.69226 -20.54021 13.63820
158 3 15 0.00000 14.30394 -20.48853 12.16065
159 3 15 0.00000 13.86603 -20.44685 10.69568
160 3 15 0.00000 13.40642 -20.41422 9.23431
161 3 15 0.00000 13.03979 -20.35350 7.75316
162 3 16 0.00000 12.50888 -20.33990 6.30797
163 4 16 0.40000 24.39663 -18.44095 38.37189
164 4 16 0.40000 25.28079 -16.68152 37.04916
165 4 16 0.40000 24.51148 -18.69009 36.00939
166 4 8 -0.50000 24.25320 -17.73358 37.08765
167 4 15 0.30000 22.92257 -17.12989 36.97177
168 4 15 0.40000 21.59781 -16.41148 36.64200
169 4 3 -0.80000 20.61232 -15.82236 35.94670
170 4 30 1.70000 20.62016 -16.37375 34.37881
171 4 2 -0.80000 19.70389 -17.57176 34.35274
172 4 2 -0.80000 22.09844 -16.56445 34.06766
173 4 3 -0.70000 19.96016 -15.12187 33.52027
174 4 15 0.40000 20.12142 -15.07861 32.16717
175 4 14 0.30000 20.71166 -15.06372 30.82206
176 4 4 -0.70000 19.99878 -15.22442 29.52186
177 4 12 0.70000 19.91393 -14.14339 28.59832
178 4 1 -0.70000 20.08737 -12.98002 28.95097
179 4 15 0.00000 19.61791 -14.40608 27.07048
180 4 15 0.00000 19.34041 -14.41882 25.25449
181 4 15 0.00000 19.06906 -14.39988 23.42493
182 4 15 0.00000 18.78268 -14.40391 21.58936
183 4 15 0.00000 18.47316 -14.44060 19.75462
184 4 15 0.00000 18.13924 -14.50806 17.92506
185 4 15 0.00000 17.78050 -14.60239 16.10487
186 4 15 0.00000 17.40023 -14.72146 14.30051
187 4 15 0.00000 16.99731 -14.85641 12.51936
188 4 15 0.00000 16.57280 -15.00333 10.77244
189 4 15 0.00000 16.12599 -15.15843 9.07219
190 4 15 0.00000 15.65880 -15.32385 7.43658
191 4 15 0.00000 15.16591 -15.48397 5.86982
192 4 15 0.00000 14.64957 -15.63345 4.36018
193 4 15 0.00000 14.11977 -15.76842 2.89328
194 4 15 0.00000 13.64034 -15.94304 1.28379
195 4 16 0.00000 13.07363 -16.05285 -0.08326
196 4 15 0.50000 22.02961 -15.62606 30.93041
197 4 4 -0.70000 23.18853 -16.11692 31.38949
198 4 12 0.80000 23.99106 -16.83413 30.57892
199 4 1 -0.60000 25.12672 -17.22141 30.90493
200 4 15 0.00000 23.49783 -17.12022 29.26782
201 4 15 0.00000 22.85567 -17.38771 27.91783
202 4 15 0.00000 22.16776 -17.68578 26.59801
203 4 15 0.00000 21.49249 -18.00804 25.27653
204 4 15 0.00000 20.85225 -18.30653 23.93022
205 4 15 0.00000 20.24845 -18.54399 22.55368
206 4 15 0.00000 19.67968 -18.71658 21.15129
207 4 15 0.00000 19.15326 -18.84491 19.72661
208 4 15 0.00000 18.68580 -18.95088 18.27814
209 4 15 0.00000 18.29220 -19.03952 16.80683
210 4 15 0.00000 17.96789 -19.09514 15.31567
211 4 15 0.00000 17.69027 -19.09333 13.81254
212 4 15 0.00000 17.42816 -19.02429 12.30816
213 4 15 0.00000 17.16004 -18.90358 10.80711
214 4 15 0.00000 16.88431 -18.76034 9.30664
215 4 15 0.00000 16.62981 -18.71383 7.80167
216 4 16 0.00000 16.34047 -18.49638 6.30513
217 5 16 0.40000 12.63685 1.28714 38.13682
218 5 16 0.40000 12.96110 3.30529 36.93310
219 5 16 0.40000 12.79739 1.22799 35.76460
220 5 8 -0.50000 12.28287 2.00030 36.89733
221 5 15 0.30000 10.83339 2.19843 36.80671
222 5 15 0.40000 9.35433 2.52100 36.50973
223 5 3 -0.80000 8.23410 2.84092 35.84307
224 5 30 1.70000 8.38708 2.41313 34.24433
225 5 2 -0.80000 7.85710 1.00499 34.13616
226 5 2 -0.80000 9.85428 2.67854 33.93553
227 5 3 -0.70000 7.38481 3.47043 33.45854
228 5 15 0.40000 7.51426 3.64182 32.11221
229 5 14 0.30000 8.06255 3.90994 30.77601
230 5 4 -0.70000 7.41499 3.62996 29.46193
231 5 12 0.70000 7.01208 4.69476 28.60600
232 5 1 -0.70000 6.84416 5.83444 29.03120
233 5 15 0.00000 6.79095 4.45220 27.06224
234 5 15 0.00000 6.51248 4.47147 25.24646
235 5 15 0.00000 6.23059 4.52362 23.41913
236 5 15 0.00000 5.94093 4.54984 21.58426
237 5 15 0.00000 5.63858 4.53812 19.74800
238 5 15 0.00000 5.32185 4.48961 17.91479
239 5 15 0.00000 4.98924 4.40767 16.08905
240 5 15 0.00000 4.64333 4.29490 14.27738
241 5 15 0.00000 4.28056 4.15896 12.48769
242 5 15 0.00000 3.90091 4.00322 10.73124
243 5 15 0.00000 3.50272 3.83033 9.02065
244 5 15 0.00000 3.08860 3.63769 7.37376
245 5 15 0.00000 2.64898 3.43844 5.79568
246 5 15 0.00000 2.18435 3.23902 4.27505
247 5 15 0.00000 1.70303 3.04695 2.79784
248 5 15 0.00000 1.28010 2.84036 1.17634
249 5 16 0.00000 0.75707 2.65547 -0.19999
250 5 15 0.50000 9.48783 3.74810 30.86155
251 5 4 -0.70000 10.74342 3.58684 31.30008
252 5 12 0.80000 11.71191 3.18432 30.45424
253 5 1 -0.60000 12.91400 3.12345 30.76613
254 5 15 0.00000 11.31080 2.84891 29.12355
255 5 15 0.00000 10.76142 2.49048 27.75385
256 5 15 0.00000 10.17738 2.08774 26.41195
257 5 15 0.00000 9.61243 1.66567 25.06702
258 5 15 0.00000 9.07391 1.27797 23.69909
259 5 15 0.00000 8.55229 0.96098 22.30508
260 5 15 0.00000 8.04515 0.71770 20.88959
261 5 15 0.00000 7.56553 0.53034 19.45496
262 5 15 0.00000 7.13563 0.38289 17.99851
263 5 15 0.00000 6.77119 0.27479 16.52100
264 5 15 0.00000 6.46331 0.21953 15.02635
265 5 15 0.00000 6.18337 0.23340 13.52371
266 5 15 0.00000 5.89878 0.31605 12.02411
267 5 15 0.00000 5.59349 0.44610 10.53096
268 5 15 0.00000 5.27440 0.59543 9.03971
269 5 15 0.00000 5.00361 0.65880 7.53820
270 5 16 0.00000 4.65002 0.87482 6.05531
271 6 16 0.40000 -14.69119 -17.54236 38.87003
272 6 16 0.40000 -16.91785 -18.02338 38.20852
273 6 16 0.40000 -15.42413 -16.94481 36.68773
274 6 8 -0.50000 -15.52692 -17.96523 37.73294
275 6 15 0.30000 -15.11479 -19.28512 37.24662
276 6 15 0.40000 -14.85902 -20.65305 36.58090
277 6 3 -0.80000 -14.86334 -21.64538 35.67705
278 6 30 1.70000 -15.04415 -21.01647 34.14925
279 6 2 -0.80000 -13.64908 -20.76832 33.63190
280 6 2 -0.80000 -15.98097 -19.83327 34.35145
281 6 3 -0.70000 -15.76502 -22.24333 33.30365
282 6 15 0.40000 -16.37250 -21.97067 32.11396
283 6 14 0.30000 -17.23567 -21.38828 31.07778
284 6 4 -0.70000 -17.12067 -21.56780 29.60161
285 6 12 0.70000 -18.12097 -22.27263 28.87265
286 6 1 -0.70000 -18.89735 -23.04566 29.42719
287 6 15 0.00000 -18.28649 -22.06357 27.31707
288 6 15 0.00000 -18.73410 -21.98092 25.53724
289 6 15 0.00000 -19.21190 -21.91502 23.75156
290 6 15 0.00000 -19.66651 -21.84184 21.95175
291 6 15 0.00000 -20.08375 -21.76089 20.13991
292 6 15 0.00000 -20.46254 -21.67499 18.31989
293 6 15 0.00000 -20.80380 -21.58784 16.49599
294 6 15 0.00000 -21.10884 -21.49970 14.67563
295 6 15 0.00000 -21.38033 -21.41875 12.86654
296 6 15 0.00000 -21.61775 -21.34872 11.07986
297 6 15 0.00000 -21.81885 -21.29459 9.32738
298 6 15 0.00000 -21.97715 -21.25611 7.62611
299 6 15 0.00000 -22.09828 -21.24877 5.98033
300 6 15 0.00000 -22.19144 -21.27320 4.38074
301 6 15 0.00000 -22.27074 -21.32336 2.81809
302 6 15 0.00000 -22.40573 -21.29029 1.13538
303 6 16 0.00000 -22.44321 -21.39797 -0.34416
304 6 15 0.50000 -17.67022 -20.10574 31.55863
305 6 4 -0.70000 -17.92741 -19.03292 32.31872
306 6 12 0.80000 -18.24522 -17.85531 31.74628
307 6 1 -0.60000 -18.60406 -16.85386 32.38996
308 6 15 0.00000 -18.19133 -17.79406 30.31889
309 6 15 0.00000 -18.06724 -17.84146 28.80603
310 6 15 0.00000 -17.88227 -17.90210 27.30067
311 6 15 0.00000 -17.68969 -17.93650 25.79472
312 6 15 0.00000 -17.54457 -17.96075 24.28149
313 6 15 0.00000 -17.47493 -18.00004 22.76180
314 6 15 0.00000 -17.48095 -18.05872 21.23979
315 6 15 0.00000 -17.55216 -18.11746 19.71835
316 6 15 0.00000 -17.68499 -18.14901 18.19876
317 6 15 0.00000 -17.88537 -18.13977 16.68637
318 6 15 0.00000 -18.15991 -18.10460 15.18463
319 6 15 0.00000 -18.50775 -18.07756 13.69643
320 6 15 0.00000 -18.91158 -18.08836 12.22218
321 6 15 0.00000 -19.34533 -18.14100 10.75633
322 6 15 0.00000 -19.78921 -18.21514 9.29161
323 6 15 0.00000 -20.18291 -18.20444 7.81622
324 6 16 0.00000 -20.66684 -18.34192 6.36104
325 7 16 0.40000 0.94414 23.29112 38.23099
326 7 16 0.40000 -0.37106 25.07039 37.37575
327 7 16 0.40000 0.94002 23.73167 35.89377
328 7 8 -0.50000 0.10302 23.70631 37.09505
329 7 15 0.30000 -1.04342 22.80625 36.94002
330 7 15 0.40000 -2.31382 22.00038 36.59869
331 7 3 -0.80000 -3.35994 21.50882 35.91628
332 7 30 1.70000 -3.05157 21.57667 34.28451
333 7 2 -0.80000 -2.40575 20.26132 33.92641
334 7 2 -0.80000 -2.25442 22.86327 34.11813
335 7 3 -0.70000 -4.55733 21.68558 33.60574
336 7 15 0.40000 -4.68141 22.10144 32.31329
337 7 14 0.30000 -4.58656 22.88361 31.07348
338 7 4 -0.70000 -4.91689 22.42881 29.69197
339 7 12 0.70000 -6.02037 22.98669 28.98495
340 7 1 -0.70000 -6.93131 23.56806 29.56808
341 7 15 0.00000 -6.09958 22.90056 27.41102
342 7 15 0.00000 -6.42552 22.99122 25.60533
343 7 15 0.00000 -6.77832 23.10335 23.79308
344 7 15 0.00000 -7.11825 23.19354 21.96889
345 7 15 0.00000 -7.43957 23.24921 20.13666
346 7 15 0.00000 -7.74400 23.26922 18.30084
347 7 15 0.00000 -8.03470 23.25409 16.46618
348 7 15 0.00000 -8.31133 23.20639 14.63979
349 7 15 0.00000 -8.58136 23.12754 12.83039
350 7 15 0.00000 -8.84650 23.01802 11.04960
351 7 15 0.00000 -9.10895 22.87651 9.31016
352 7 15 0.00000 -9.36387 22.70040 7.62943
353 7 15 0.00000 -9.62699 22.49082 6.01383
354 7 15 0.00000 -9.90339 22.25424 4.45319
355 7 15 0.00000 -10.19370 22.00387 2.93538
356 7 15 0.00000 -10.44292 21.80809 1.27696
357 7 16 0.00000 -10.76041 21.51693 -0.14306
358 7 15 0.50000 -3.48333 23.79142 31.22747
359 7 4 -0.70000 -2.47387 24.52276 31.71832
360 7 12 0.80000 -1.57274 25.08133 30.88679
361 7 1 -0.60000 -0.68103 25.86111 31.26465
362 7 15 0.00000 -1.69456 24.76982 29.49674
363 7 15 0.00000 -1.90435 24.34165 28.05485
364 7 15 0.00000 -2.10411 23.85431 26.63128
365 7 15 0.00000 -2.27697 23.36818 25.20300
366 7 15 0.00000 -2.45802 22.92786 23.75909
367 7 15 0.00000 -2.68026 22.55141 22.30145
368 7 15 0.00000 -2.94723 22.23840 20.83491
369 7 15 0.00000 -3.23695 21.98590 19.35991
370 7 15 0.00000 -3.52275 21.79958 17.87283
371 7 15 0.00000 -3.79335 21.69032 16.37537
372 7 15 0.00000 -4.06436 21.66018 14.87289
373 7 15 0.00000 -4.36663 21.69804 13.37500
374 7 15 0.00000 -4.72161 21.77842 11.89036
375 7 15 0.00000 -5.12465 21.87480 10.41798
376 7 15 0.00000 -5.55100 21.97390 8.94954
377 7 15 0.00000 -5.88268 22.05156 7.46097
378 7 16 0.00000 -6.38040 22.16939 6.00871
379 8 16 0.40000 -18.81312 24.97054 41.45043
380 8 16 0.40000 -19.25696 22.88549 40.40997
381 8 16 0.40000 -19.92528 24.91883 39.34873
382 8 8 -0.50000 -18.87712 24.28264 40.14930
383 8 15 0.30000 -17.57675 24.32405 39.47419
384 8 15 0.40000 -16.31251 24.24044 38.59411
385 8 3 -0.80000 -15.52084 24.08707 37.52106
386 8 30 1.70000 -16.37485 24.42714 36.13636
387 8 2 -0.80000 -16.17470 25.89888 35.87299
388 8 2 -0.80000 -17.77574 23.91189 36.43720
389 8 3 -0.70000 -15.61539 23.52330 34.97611
390 8 15 0.40000 -16.24716 23.28560 33.79157
391 8 14 0.30000 -17.23567 22.88361 32.78204
392 8 4 -0.70000 -17.23000 23.22050 31.32911
393 8 12 0.70000 -17.03690 22.20761 30.34648
394 8 1 -0.70000 -16.52551 21.12711 30.62730
395 8 15 0.00000 -17.50146 22.42897 28.85447
396 8 15 0.00000 -17.98093 22.39219 27.08141
397 8 15 0.00000 -18.45656 22.32316 25.29527
398 8 15 0.00000 -18.93252 22.28072 23.50000
399 8 15 0.00000 -19.40392 22.27771 21.69966
400 8 15 0.00000 -19.86722 22.31345 19.89761
401 8 15 0.00000 -20.31876 22.38503 18.09715
402 8 15 0.00000 -20.75775 22.48970 16.30526
403 8 15 0.00000 -21.17653 22.62076 14.52748
404 8 15 0.00000 -21.56998 22.77530 12.77396
405 8 15 0.00000 -21.93105 22.95142 11.05548
406 8 15 0.00000 -22.25535 23.15188 9.38950
407 8 15 0.00000 -22.53001 23.36550 7.77636
408 8 15 0.00000 -22.75900 23.58544 6.20564
409 8 15 0.00000 -22.95421 23.80244 4.66762
410 8 15 0.00000 -23.26264 24.01900 3.02178
411 8 16 0.00000 -23.37841 24.23937 1.55888
412 8 15 0.50000 -18.51033 22.81027 33.44146
413 8 4 -0.70000 -19.48964 22.77685 34.35504
414 8 12 0.80000 -20.76922 22.98354 33.98703
415 8 1 -0.60000 -21.73493 22.85558 34.75970
416 8 15 0.00000 -21.00116 23.33369 32.62039
417 8 15 0.00000 -21.11926 23.72968 31.15901
418 8 15 0.00000 -21.20228 24.17607 29.71062
419 8 15 0.00000 -21.30690 24.63824 28.26785
420 8 15 0.00000 -21.43890 25.06135 26.81351
421 8 15 0.00000 -21.58493 25.41105 25.33966
422 8 15 0.00000 -21.74048 25.68496 23.84944
423 8 15 0.00000 -21.91925 25.89853 22.35086
424 8 15 0.00000 -22.14497 26.06377 20.85101
425 8 15 0.00000 -22.43158 26.17865 19.35696
426 8 15 0.00000 -22.76726 26.23148 17.86821
427 8 15 0.00000 -23.11986 26.21128 16.38102
428 8 15 0.00000 -23.45566 26.12418 14.89231
429 8 15 0.00000 -23.76240 25.99400 13.39946
430 8 15 0.00000 -24.05276 25.84717 11.90211
431 8 15 0.00000 -24.40494 25.77671 10.41790
432 8 16 0.00000 -24.64985 25.57016 8.91191
433 9 16 0.40000 -6.58880 7.34841 40.18925
434 9 16 0.40000 -6.08275 9.30479 38.94688
435 9 16 0.40000 -6.43643 7.22883 37.81877
436 9 8 -0.50000 -6.87731 8.06672 38.93584
437 9 15 0.30000 -8.30273 8.39453 38.84011
438 9 15 0.40000 -9.74643 8.84495 38.53562
439 9 3 -0.80000 -10.83337 9.25279 37.86188
440 9 30 1.70000 -10.72150 8.78189 36.27188
441 9 2 -0.80000 -11.37790 7.42617 36.19058
442 9 2 -0.80000 -9.23647 8.90622 35.95929
443 9 3 -0.70000 -11.62377 9.91082 35.46483
444 9 15 0.40000 -11.48041 10.04352 34.11554
445 9 14 0.30000 -10.91112 10.23450 32.77489
446 9 4 -0.70000 -11.58270 9.98935 31.46591
447 9 12 0.70000 -11.88749 11.06968 30.58912
448 9 1 -0.70000 -11.95030 12.22796 30.99198
449 9 15 0.00000 -12.13121 10.81840 29.05016
450 9 15 0.00000 -12.40837 10.82778 27.23410
451 9 15 0.00000 -12.68593 10.86998 25.40586
452 9 15 0.00000 -12.97363 10.88692 23.57057
453 9 15 0.00000 -13.27741 10.86723 21.73461
454 9 15 0.00000 -13.59888 10.81227 19.90241
455 9 15 0.00000 -13.93920 10.72563 18.07830
456 9 15 0.00000 -14.29556 10.60977 16.26885
457 9 15 0.00000 -14.67081 10.47281 14.48182
458 9 15 0.00000 -15.06465 10.31833 12.72839
459 9 15 0.00000 -15.47849 10.14935 11.02112
460 9 15 0.00000 -15.90992 9.96341 9.37791
461 9 15 0.00000 -16.36730 9.77453 7.80361
462 9 15 0.00000 -16.84954 9.58889 6.28672
463 9 15 0.00000 -17.34769 9.41293 4.81309
464 9 15 0.00000 -17.78916 9.21439 3.19553
465 9 16 0.00000 -18.32809 9.05134 1.82258
466 9 15 0.50000 -9.50648 9.94492 32.86481
467 9 4 -0.70000 -8.27047 9.67826 33.30750
468 9 12 0.80000 -7.34351 9.17267 32.47049
469 9 1 -0.60000 -6.15173 9.00839 32.78456
470 9 15 0.00000 -7.77475 8.84952 31.14621
471 9 15 0.00000 -8.35577 8.51623 29.78322
472 9 15 0.00000 -8.97532 8.14253 28.44888
473 9 15 0.00000 -9.57764 7.74777 27.11189
474 9 15 0.00000 -10.15052 7.38438 25.75126
475 9 15 0.00000 -10.70013 7.08934 24.36320
476 9 15 0.00000 -11.22861 6.86595 22.95225
477 9 15 0.00000 -11.72461 6.69536 21.52110
478 9 15 0.00000 -12.16747 6.55953 20.06741
479 9 15 0.00000 -12.54157 6.45650 18.59194
480 9 15 0.00000 -12.85453 6.40058 17.09837
481 9 15 0.00000 -13.13337 6.41080 15.59551
482 9 15 0.00000 -13.41056 6.48996 14.09433
483 9 15 0.00000 -13.70402 6.61834 12.59866
484 9 15 0.00000 -14.00948 6.76721 11.10452
485 9 15 0.00000 -14.27469 6.82589 9.60182
486 9 16 0.00000 -14.60840 7.04447 8.11471
487 10 16 0.40000 -23.57911 -5.20690 41.13708
488 10 16 0.40000 -25.06180 -6.86726 40.31743
489 10 16 0.40000 -24.62305 -4.90925 39.02088
490 10 8 -0.50000 -24.02658 -5.90154 39.91746
491 10 15 0.30000 -22.91057 -6.60765 39.28153
492 10 15 0.40000 -21.89594 -7.42398 38.45451
493 10 3 -0.80000 -21.32824 -8.07811 37.42907
494 10 30 1.70000 -21.92794 -7.50129 35.99031
495 10 2 -0.80000 -21.00861 -6.38012 35.57408
496 10 2 -0.80000 -23.38478 -7.18774 36.30304
497 10 3 -0.70000 -21.77583 -8.78717 34.95915
498 10 15 0.40000 -22.47553 -8.79438 33.78906
499 10 14 0.30000 -23.56023 -8.73917 32.79997
500 10 4 -0.70000 -23.42637 -8.61391 31.31979
501 10 12 0.70000 -23.81058 -9.68242 30.45988
502 10 1 -0.70000 -23.91830 -10.83401 30.87229
503 10 15 0.00000 -24.14048 -9.41831 28.93924
504 10 15 0.00000 -24.62423 -9.39693 27.16709
505 10 15 0.00000 -25.12163 -9.40641 25.38558
506 10 15 0.00000 -25.60595 -9.39409 23.59208
507 10 15 0.00000 -26.06626 -9.35110 21.78939
508 10 15 0.00000 -26.49978 -9.27946 19.98101
509 10 15 0.00000 -26.90476 -9.18319 18.17065
510 10 15 0.00000 -27.28174 -9.06427 16.36558
511 10 15 0.00000 -27.62740 -8.93171 14.57226
512 10 15 0.00000 -27.93854 -8.78954 12.80125
513 10 15 0.00000 -28.20979 -8.64178 11.06367
514 10 15 0.00000 -28.43541 -8.48647 9.37672
515 10 15 0.00000 -28.61010 -8.33967 7.74232
516 10 15 0.00000 -28.74110 -8.20632 6.15078
517 10 15 0.00000 -28.84365 -8.08924 4.59306
518 10 15 0.00000 -29.04678 -7.92618 2.92484
519 10 16 0.00000 -29.07720 -7.83882 1.44380
520 10 15 0.50000 -24.67105 -8.07516 33.42457
521 10 4 -0.70000 -25.50041 -7.50108 34.30627
522 10 12 0.80000 -26.50277 -6.70832 33.87934
523 10 1 -0.60000 -27.37326 -6.23707 34.63177
524 10 15 0.00000 -26.56327 -6.44035 32.47626
525 10 15 0.00000 -26.50546 -6.20215 30.97749
526 10 15 0.00000 -26.39132 -5.93765 29.48719
527 10 15 0.00000 -26.28741 -5.64801 28.00009
528 10 15 0.00000 -26.22739 -5.37884 26.50494
529 10 15 0.00000 -26.21768 -5.16705 24.99799
530 10 15 0.00000 -26.25555 -5.01668 23.48275
531 10 15 0.00000 -26.34457 -4.90667 21.96510
532 10 15 0.00000 -26.49871 -4.81381 20.45003
533 10 15 0.00000 -26.73074 -4.73193 18.94438
534 10 15 0.00000 -27.03655 -4.67708 17.44929
535 10 15 0.00000 -27.39433 -4.67554 15.96320
536 10 15 0.00000 -27.77210 -4.73974 14.48340
537 10 15 0.00000 -28.14718 -4.85597 13.00508
538 10 15 0.00000 -28.51690 -4.99527 11.52460
539 10 15 0.00000 -28.90004 -5.03640 10.04697
540 10 16 0.00000 -29.26171 -5.25082 8.56580
541 11 16 0.40000 12.42867 -5.89543 39.01797
542 11 16 0.40000 10.24600 -5.25288 38.34711
543 11 16 0.40000 12.03480 -5.24784 36.76359
544 11 8 -0.50000 11.46097 -5.95722 37.90893
545 11 15 0.30000 11.13502 -7.34779 37.57950
546 11 15 0.40000 10.64470 -8.71974 37.07236
547 11 3 -0.80000 10.11296 -9.66424 36.28061
548 11 30 1.70000 10.23022 -9.19855 34.68946
549 11 2 -0.80000 11.54357 -9.74681 34.18948
550 11 2 -0.80000 10.02630 -7.69033 34.73588
551 11 3 -0.70000 8.96372 -9.97541 33.95984
552 11 15 0.40000 8.54287 -9.56274 32.73048
553 11 14 0.30000 8.06255 -8.73917 31.61292
554 11 4 -0.70000 8.02780 -9.10958 30.16858
555 11 12 0.70000 6.78760 -9.28574 29.49062
556 11 1 -0.70000 5.74358 -9.49557 30.10204
557 11 15 0.00000 6.70502 -9.19022 27.91741
558 11 15 0.00000 6.30872 -9.08444 26.12667
559 11 15 0.00000 5.87775 -8.97836 24.33103
560 11 15 0.00000 5.47004 -8.87929 22.52126
561 11 15 0.00000 5.09814 -8.79375 20.69977
562 11 15 0.00000 4.76166 -8.72428 18.87076
563 11 15 0.00000 4.45806 -8.67313 17.03886
564 11 15 0.00000 4.18630 -8.63906 15.21142
565 11 15 0.00000 3.94016 -8.62690 13.39695
566 11 15 0.00000 3.71855 -8.63889 11.60691
567 11 15 0.00000 3.52122 -8.67918 9.85362
568 11 15 0.00000 3.35439 -8.74901 8.15417
569 11 15 0.00000 3.20549 -8.85831 6.51429
570 11 15 0.00000 3.06601 -9.00399 4.92455
571 11 15 0.00000 2.92654 -9.17474 3.37468
572 11 15 0.00000 2.77763 -9.25897 1.69493
573 11 16 0.00000 2.64759 -9.49117 0.23507
574 11 15 0.50000 8.35012 -7.36983 31.94028
575 11 4 -0.70000 8.69282 -6.23969 32.57285
576 11 12 0.80000 8.99723 -5.13235 31.86816
577 11 1 -0.60000 9.21278 -4.02443 32.38975
578 11 15 0.00000 9.03289 -5.26049 30.44464
579 11 15 0.00000 9.07169 -5.52633 28.94991
580 11 15 0.00000 9.15651 -5.83347 27.46585
581 11 15 0.00000 9.26114 -6.12205 25.97859
582 11 15 0.00000 9.32976 -6.37874 24.48161
583 11 15 0.00000 9.32549 -6.61084 22.97764
584 11 15 0.00000 9.24612 -6.82155 21.47122
585 11 15 0.00000 9.11051 -6.99931 19.96347
586 11 15 0.00000 8.93556 -7.12244 18.45283
587 11 15 0.00000 8.72318 -7.17573 16.94299
588 11 15 0.00000 8.46027 -7.16820 15.43878
589 11 15 0.00000 8.13043 -7.12912 13.94676
590 11 15 0.00000 7.73360 -7.09264 12.47101
591 11 15 0.00000 7.29006 -7.07595 11.00724
592 11 15 0.00000 6.82695 -7.07243 9.54661
593 11 15 0.00000 6.44967 -7.02279 8.06773
594 11 16 0.00000 5.92029 -7.05223 6.62221
595 12 16 0.40000 -2.31636 -18.96240 38.49841
596 12 16 0.40000 -0.85875 -17.77269 37.05379
597 12 16 0.40000 -2.33960 -19.42343 36.16526
598 12 8 -0.50000 -2.20458 -18.35728 37.15992
599 12 15 0.30000 -3.21437 -17.31090 36.97584
600 12 15 0.40000 -4.17909 -16.17773 36.56954
601 12 3 -0.80000 -4.88325 -15.32001 35.81445
602 12 30 1.70000 -5.10650 -15.95709 34.29567
603 12 2 -0.80000 -6.40471 -16.72330 34.35079
604 12 2 -0.80000 -3.81191 -16.71107 34.02357
605 12 3 -0.70000 -5.26343 -14.62175 33.33020
606 12 15 0.40000 -5.11864 -14.74971 31.98061
607 12 14 0.30000 -4.58656 -15.06372 30.64786
608 12 4 -0.70000 -5.32781 -15.04890 29.35369
609 12 12 0.70000 -5.01634 -14.09175 28.34591
610 12 1 -0.70000 -4.41485 -13.05368 28.60757
611 12 15 0.00000 -5.41273 -14.34522 26.83940
612 12 15 0.00000 -5.70289 -14.39758 25.02611
613 12 15 0.00000 -5.97570 -14.42405 23.19685
614 12 15 0.00000 -6.27114 -14.46661 21.36321
615 12 15 0.00000 -6.60024 -14.53060 19.53263
616 12 15 0.00000 -6.96340 -14.61350 17.70929
617 12 15 0.00000 -7.35947 -14.71120 15.89704
618 12 15 0.00000 -7.78452 -14.82242 14.10219
619 12 15 0.00000 -8.23616 -14.93802 12.33139
620 12 15 0.00000 -8.71176 -15.05387 10.59534
621 12 15 0.00000 -9.21039 -15.16523 8.90610
622 12 15 0.00000 -9.73076 -15.27335 7.28179
623 12 15 0.00000 -10.27193 -15.36149 5.72529
624 12 15 0.00000 -10.82997 -15.42649 4.22452
625 12 15 0.00000 -11.39440 -15.46963 2.76498
626 12 15 0.00000 -11.92917 -15.57961 1.16725
627 12 16 0.00000 -12.51687 -15.57777 -0.19534
628 12 15 0.50000 -3.57319 -16.06774 30.82095
629 12 4 -0.70000 -2.67510 -16.91834 31.33547
630 12 12 0.80000 -2.21180 -17.94571 30.59701
631 12 1 -0.60000 -1.29860 -18.70248 30.97030
632 12 15 0.00000 -2.79645 -18.12978 29.30534
633 12 15 0.00000 -3.51284 -18.24405 27.97113
634 12 15 0.00000 -4.28263 -18.36706 26.66871
635 12 15 0.00000 -5.04977 -18.51727 25.36676
636 12 15 0.00000 -5.77592 -18.66060 24.03871
637 12 15 0.00000 -6.44592 -18.76359 22.67624
638 12 15 0.00000 -7.05957 -18.82179 21.28339
639 12 15 0.00000 -7.61773 -18.85671 19.86545
640 12 15 0.00000 -8.11322 -18.89493 18.42295
641 12 15 0.00000 -8.53410 -18.94658 16.95743
642 12 15 0.00000 -8.87869 -18.99522 15.47058
643 12 15 0.00000 -9.15867 -19.00921 13.96796
644 12 15 0.00000 -9.39915 -18.96699 12.45898
645 12 15 0.00000 -9.62582 -18.87452 10.94911
646 12 15 0.00000 -9.85110 -18.75833 9.43793
647 12 15 0.00000 -10.09296 -18.73982 7.93027
648 12 16 0.00000 -10.30305 -18.54967 6.41688
649 13 16 0.40000 -18.60222 -17.16503 39.06747
650 13 16 0.40000 -18.61117 -15.08093 37.93458
651 13 16 0.40000 -18.44084 -17.11612 36.69508
652 13 8 -0.50000 -19.07007 -16.47624 37.85219
653 13 15 0.30000 -20.53278 -16.51157 37.76438