created with groupy

12156 atoms
9468 bonds
7260 angles
4000 dihedrals
216 impropers

58 atom types
54 bond types
55 angle types
43 dihedral types
3 improper types

-20.396078 20.396078 xlo xhi
-20.396078 20.396078 ylo yhi
-55.595044 55.595044 zlo zhi

Masses

1 15.9994
2 15.9994
3 15.9994
4 15.9994
5 15.9994
6 14.0067
7 14.0067
8 14.0067
9 14.0067
10 14.0067
11 14.0067
12 12.0110
13 12.0110
14 13.0190
15 14.0270
16 15.0350
17 16.0430
18 14.0270
19 13.0190
20 1.0080
21 1.0080
22 999.0   # dummy, this type not in this system
23 32.0600
24 63.5460
25 63.5460
26 55.8470
27 65.3700
28 24.3050
29 40.0800
30 30.9738
31 39.9480
32 18.9984
33 35.4350
34 79.9040
35 15.0350
36 15.9994
37 22.9898
38 35.4350
39 12.0110
40 35.4350
41 1.0080
42 32.0600
43 15.0350
44 15.9994
45 12.0110
46 35.4350
47 18.9984
48 12.0110
49 14.0270
50 15.9994
51 12.0110
52 15.9994
53 14.0067
54 28.0800
55 999.0   # dummy, this type not in this system
56 999.0   # dummy, this type not in this system
57 15.9994
58 1.0080

Atoms

1 1 16 0.40000 21.41828 -14.52662 30.97728
2 1 16 0.40000 19.27094 -13.69796 30.40350
3 1 16 0.40000 20.96584 -13.88985 28.73083
4 1 8 -0.50000 20.39132 -14.52032 29.92108
5 1 15 0.30000 19.92244 -15.88093 29.64296
6 1 15 0.40000 19.28236 -17.21128 29.19538
7 1 3 -0.80000 18.62505 -18.11786 28.45528
8 1 30 1.70000 18.69955 -17.69646 26.84928
9 1 2 -0.80000 19.92874 -18.37377 26.29630
10 1 2 -0.80000 18.63722 -16.17521 26.86909
11 1 3 -0.70000 17.33024 -18.36686 26.20472
12 1 15 0.40000 16.88405 -17.94127 24.98877
13 1 14 0.30000 16.42228 -17.09890 23.87741
14 1 4 -0.70000 16.27695 -17.49288 22.44626
15 1 12 0.70000 14.99150 -17.56669 21.83721
16 1 1 -0.70000 13.96670 -17.66682 22.50624
17 1 15 0.00000 14.83437 -17.49493 20.26842
18 1 15 0.00000 14.35464 -17.38817 18.49827
19 1 15 0.00000 13.84020 -17.27801 16.72499
20 1 15 0.00000 13.34749 -17.17725 14.93658
21 1 15 0.00000 12.88853 -17.09351 13.13498
22 1 15 0.00000 12.46292 -17.02920 11.32444
23 1 15 0.00000 12.06818 -16.98622 9.50977
24 1 15 0.00000 11.70378 -16.96312 7.69837
25 1 15 0.00000 11.36353 -16.96394 5.89912
26 1 15 0.00000 11.04677 -16.99059 4.12361
27 1 15 0.00000 10.75351 -17.04695 2.38424
28 1 15 0.00000 10.49076 -17.13447 0.69778
29 1 15 0.00000 10.24539 -17.26177 -0.92915
30 1 15 0.00000 10.00873 -17.42518 -2.50562
31 1 15 0.00000 9.77191 -17.61276 -4.04166
32 1 15 0.00000 9.52670 -17.71590 -5.70901
33 1 16 0.00000 9.29843 -17.96376 -7.15417
34 1 15 0.50000 16.85095 -15.75592 24.15596
35 1 4 -0.70000 17.32879 -14.65015 24.74226
36 1 12 0.80000 17.69528 -13.58986 23.99598
37 1 1 -0.60000 18.03875 -12.49663 24.47852
38 1 15 0.00000 17.64323 -13.74877 22.57607
39 1 15 0.00000 17.57791 -14.04644 21.08828
40 1 15 0.00000 17.55514 -14.38928 19.60979
41 1 15 0.00000 17.55361 -14.71555 18.12665
42 1 15 0.00000 17.51866 -15.00692 16.63487
43 1 15 0.00000 17.41311 -15.26719 15.13922
44 1 15 0.00000 17.23471 -15.49927 13.64446
45 1 15 0.00000 17.00333 -15.69336 12.15044
46 1 15 0.00000 16.73767 -15.82947 10.65422
47 1 15 0.00000 16.44123 -15.89258 9.15899
48 1 15 0.00000 16.10040 -15.89035 7.67049
49 1 15 0.00000 15.69656 -15.85026 6.19679
50 1 15 0.00000 15.22673 -15.80625 4.74285
51 1 15 0.00000 14.70927 -15.77737 3.30374
52 1 15 0.00000 14.17133 -15.75972 1.86909
53 1 15 0.00000 13.72198 -15.70447 0.41070
54 1 16 0.00000 13.11592 -15.71320 -1.00467
55 2 16 0.40000 22.21498 19.59775 29.12708
56 2 16 0.40000 20.60616 21.18617 28.40900
57 2 16 0.40000 22.01786 20.10693 26.81222
58 2 8 -0.50000 21.26081 19.91817 28.05138
59 2 15 0.30000 20.25344 18.86188 27.91754
60 2 15 0.40000 19.09953 17.88602 27.60764
61 2 3 -0.80000 18.10192 17.26523 26.95873
62 2 30 1.70000 18.30712 17.43047 25.31770
63 2 2 -0.80000 19.11991 16.23883 24.87630
64 2 2 -0.80000 18.89479 18.82664 25.16334
65 2 3 -0.70000 16.76697 17.33407 24.71892
66 2 15 0.40000 16.51220 17.76759 23.45168
67 2 14 0.30000 16.42228 18.59423 22.24069
68 2 4 -0.70000 16.08781 18.13931 20.86022
69 2 12 0.70000 14.87692 18.54777 20.23118
70 2 1 -0.70000 13.92326 18.96719 20.88116
71 2 15 0.00000 14.72534 18.50091 18.66091
72 2 15 0.00000 14.29129 18.59917 16.87852
73 2 15 0.00000 13.82717 18.71483 15.09176
74 2 15 0.00000 13.37836 18.81112 13.29158
75 2 15 0.00000 12.95259 18.87635 11.48109
76 2 15 0.00000 12.54858 18.90898 9.66476
77 2 15 0.00000 12.16339 18.90890 7.84753
78 2 15 0.00000 11.79736 18.87849 6.03656
79 2 15 0.00000 11.44340 18.81773 4.24099
80 2 15 0.00000 11.10037 18.72650 2.47252
81 2 15 0.00000 10.76698 18.60273 0.74390
82 2 15 0.00000 10.44937 18.44404 -0.92786
83 2 15 0.00000 10.13217 18.24896 -2.53554
84 2 15 0.00000 9.80887 18.02347 -4.08879
85 2 15 0.00000 9.47621 17.78090 -5.59916
86 2 15 0.00000 9.16836 17.60291 -7.24972
87 2 16 0.00000 8.82024 17.31284 -8.66277
88 2 15 0.50000 17.38578 19.65175 22.37592
89 2 4 -0.70000 18.30123 20.51009 22.84497
90 2 12 0.80000 19.06292 21.22359 21.99279
91 2 1 -0.60000 19.84875 22.11575 22.35681
92 2 15 0.00000 18.91269 20.94178 20.59919
93 2 15 0.00000 18.69000 20.53316 19.15357
94 2 15 0.00000 18.48698 20.06697 17.72338
95 2 15 0.00000 18.31009 19.60618 16.28723
96 2 15 0.00000 18.11748 19.18992 14.83769
97 2 15 0.00000 17.87398 18.83104 13.37901
98 2 15 0.00000 17.57645 18.52843 11.91617
99 2 15 0.00000 17.24702 18.28248 10.44842
100 2 15 0.00000 16.91103 18.10289 8.97104
101 2 15 0.00000 16.57806 18.00207 7.48560
102 2 15 0.00000 16.23271 17.97953 5.99831
103 2 15 0.00000 15.84668 18.01936 4.51984
104 2 15 0.00000 15.40303 18.09288 3.05888
105 2 15 0.00000 14.91023 18.17463 1.61317
106 2 15 0.00000 14.39422 18.25544 0.17264
107 2 15 0.00000 13.97376 18.32990 -1.29350
108 2 16 0.00000 13.38539 18.41801 -2.71360
109 3 16 0.40000 16.55698 -14.84385 29.39096
110 3 16 0.40000 14.50068 -13.82365 28.79279
111 3 16 0.40000 16.16637 -14.22507 27.12795
112 3 8 -0.50000 15.53424 -14.76450 28.33364
113 3 15 0.30000 14.93361 -16.07932 28.09082
114 3 15 0.40000 14.16536 -17.35167 27.67758
115 3 3 -0.80000 13.42121 -18.20846 26.96075
116 3 30 1.70000 13.53466 -17.83884 25.34431
117 3 2 -0.80000 14.69066 -18.64795 24.81094
118 3 2 -0.80000 13.62210 -16.31884 25.32399
119 3 3 -0.70000 12.10529 -18.38822 24.71584
120 3 15 0.40000 11.70149 -17.95301 23.48853
121 3 14 0.30000 11.32326 -17.09890 22.35480
122 3 4 -0.70000 11.13808 -17.51423 20.93432
123 3 12 0.70000 9.85081 -17.47742 20.32576
124 3 1 -0.70000 8.82199 -17.45875 20.99587
125 3 15 0.00000 9.69945 -17.43189 18.75542
126 3 15 0.00000 9.23024 -17.32515 16.98245
127 3 15 0.00000 8.72681 -17.21169 15.20623
128 3 15 0.00000 8.24406 -17.11013 13.41514
129 3 15 0.00000 7.79321 -17.02916 11.61137
130 3 15 0.00000 7.37363 -16.97103 9.79921
131 3 15 0.00000 6.98267 -16.93727 7.98354
132 3 15 0.00000 6.61995 -16.92616 6.17168
133 3 15 0.00000 6.27894 -16.94092 4.37263
134 3 15 0.00000 5.95879 -16.98305 2.59803
135 3 15 0.00000 5.65916 -17.05609 0.86037
136 3 15 0.00000 5.38689 -17.16173 -0.82354
137 3 15 0.00000 5.12810 -17.30710 -2.44687
138 3 15 0.00000 4.87449 -17.48791 -4.01880
139 3 15 0.00000 4.61840 -17.69169 -5.54968
140 3 15 0.00000 4.36208 -17.81409 -7.21405
141 3 16 0.00000 4.10869 -18.07628 -8.65248
142 3 15 0.50000 11.88214 -15.79766 22.59845
143 3 4 -0.70000 12.46706 -14.72913 23.15606
144 3 12 0.80000 12.93496 -13.72998 22.38261
145 3 1 -0.60000 13.38479 -12.66346 22.83665
146 3 15 0.00000 12.86571 -13.92033 20.96730
147 3 15 0.00000 12.76954 -14.24920 19.48778
148 3 15 0.00000 12.71129 -14.62695 18.01880
149 3 15 0.00000 12.67579 -14.99041 16.54476
150 3 15 0.00000 12.61045 -15.31610 15.06112
151 3 15 0.00000 12.47791 -15.60403 13.57271
152 3 15 0.00000 12.27563 -15.85672 12.08435
153 3 15 0.00000 12.02437 -16.06640 10.59565
154 3 15 0.00000 11.74468 -16.21509 9.10319
155 3 15 0.00000 11.44154 -16.28811 7.60976
156 3 15 0.00000 11.10065 -16.29159 6.12127
157 3 15 0.00000 10.70079 -16.25083 4.64651
158 3 15 0.00000 10.23567 -16.19916 3.19130
159 3 15 0.00000 9.72169 -16.15748 1.75126
160 3 15 0.00000 9.18622 -16.12484 0.31595
161 3 15 0.00000 8.74258 -16.06412 -1.14398
162 3 16 0.00000 8.13676 -16.05053 -2.55941
163 4 16 0.40000 20.49733 -15.37711 29.16869
164 4 16 0.40000 21.31106 -13.61768 27.80149
165 4 16 0.40000 20.48838 -15.62625 26.80341
166 4 8 -0.50000 20.28689 -14.66974 27.89371
167 4 15 0.30000 18.95201 -14.06605 27.84763
168 4 15 0.40000 17.61181 -13.34764 27.58764
169 4 3 -0.80000 16.59128 -12.75852 26.94487
170 4 30 1.70000 16.51706 -13.30991 25.37872
171 4 2 -0.80000 15.60068 -14.50792 25.40064
172 4 2 -0.80000 17.97702 -13.50061 24.99063
173 4 3 -0.70000 15.81303 -12.05803 24.55590
174 4 15 0.40000 15.90325 -12.01477 23.19622
175 4 14 0.30000 16.42228 -11.99988 21.82206
176 4 4 -0.70000 15.64234 -12.16059 20.56095
177 4 12 0.70000 15.50926 -11.07955 19.64312
178 4 1 -0.70000 15.70092 -9.91618 19.98621
179 4 15 0.00000 15.13369 -11.34224 18.13286
180 4 15 0.00000 14.76153 -11.35498 16.33389
181 4 15 0.00000 14.39480 -11.33604 14.52103
182 4 15 0.00000 14.01275 -11.34007 12.70297
183 4 15 0.00000 13.60763 -11.37676 10.88694
184 4 15 0.00000 13.17841 -11.44422 9.07737
185 4 15 0.00000 12.72491 -11.53855 7.27845
186 4 15 0.00000 12.25072 -11.65762 5.49646
187 4 15 0.00000 11.75514 -11.79257 3.73883
188 4 15 0.00000 11.23978 -11.93949 2.01653
189 4 15 0.00000 10.70460 -12.09459 0.34199
190 4 15 0.00000 10.15245 -12.26001 -1.26693
191 4 15 0.00000 9.57824 -12.42013 -2.80574
192 4 15 0.00000 8.98360 -12.56961 -4.28629
193 4 15 0.00000 8.37775 -12.70458 -5.72345
194 4 15 0.00000 7.81474 -12.87920 -7.30565
195 4 16 0.00000 7.17727 -12.98901 -8.64116
196 4 15 0.50000 17.74409 -12.56222 21.86128
197 4 4 -0.70000 18.92546 -13.05308 22.25908
198 4 12 0.80000 19.68447 -13.77029 21.40762
199 4 1 -0.60000 20.83563 -14.15757 21.67375
200 4 15 0.00000 19.12329 -14.05638 20.12413
201 4 15 0.00000 18.41136 -14.32387 18.80960
202 4 15 0.00000 17.65532 -14.62194 17.52759
203 4 15 0.00000 16.91181 -14.94420 16.24327
204 4 15 0.00000 16.20200 -15.24269 14.93231
205 4 15 0.00000 15.52698 -15.48015 13.58925
206 4 15 0.00000 14.88559 -15.65274 12.21855
207 4 15 0.00000 14.28533 -15.78107 10.82337
208 4 15 0.00000 13.74271 -15.88704 9.40136
209 4 15 0.00000 13.27264 -15.97568 7.95266
210 4 15 0.00000 12.87073 -16.03130 6.48052
211 4 15 0.00000 12.51483 -16.02949 4.99398
212 4 15 0.00000 12.17434 -15.96045 3.50538
213 4 15 0.00000 11.82803 -15.83974 2.02041
214 4 15 0.00000 11.47415 -15.69650 0.53644
215 4 15 0.00000 11.14123 -15.64999 -0.95315
216 4 16 0.00000 10.77397 -15.43255 -2.43250
217 5 16 0.40000 11.17751 0.67438 28.88733
218 5 16 0.40000 11.43832 2.69252 27.66829
219 5 16 0.40000 11.21368 0.61523 26.50996
220 5 8 -0.50000 10.75915 1.38753 27.66806
221 5 15 0.30000 9.30691 1.58566 27.65343
222 5 15 0.40000 7.81434 1.90823 27.43427
223 5 3 -0.80000 6.66075 2.22815 26.82715
224 5 30 1.70000 6.72985 1.80036 25.22259
225 5 2 -0.80000 6.19493 0.39222 25.14230
226 5 2 -0.80000 8.17888 2.06578 24.83743
227 5 3 -0.70000 5.68783 2.85766 24.49034
228 5 15 0.40000 5.74664 3.02906 23.13907
229 5 14 0.30000 6.22424 3.29718 21.77601
230 5 4 -0.70000 5.50880 3.01719 20.49762
231 5 12 0.70000 5.06164 4.08200 19.66395
232 5 1 -0.70000 4.91621 5.22167 20.09736
233 5 15 0.00000 4.76002 3.83943 18.13388
234 5 15 0.00000 4.38690 3.85870 16.33516
235 5 15 0.00000 4.00977 3.91085 14.52509
236 5 15 0.00000 3.62447 3.93707 12.70790
237 5 15 0.00000 3.22643 3.92535 10.88997
238 5 15 0.00000 2.81419 3.87684 9.07585
239 5 15 0.00000 2.38649 3.79491 7.27002
240 5 15 0.00000 1.94624 3.68213 5.47893
241 5 15 0.00000 1.49031 3.54619 3.71069
242 5 15 0.00000 1.01925 3.39045 1.97651
243 5 15 0.00000 0.53207 3.21756 0.28911
244 5 15 0.00000 0.03233 3.02493 -1.33385
245 5 15 0.00000 -0.48928 2.82567 -2.88676
246 5 15 0.00000 -1.03285 2.62626 -4.38099
247 5 15 0.00000 -1.59083 2.43418 -5.83098
248 5 15 0.00000 -2.09804 2.22760 -7.42813
249 5 16 0.00000 -2.69238 2.04270 -8.77520
250 5 15 0.50000 7.65205 3.13533 21.78684
251 5 4 -0.70000 8.92887 2.97407 22.15906
252 5 12 0.80000 9.85177 2.57155 21.26368
253 5 1 -0.60000 11.06853 2.51068 21.51223
254 5 15 0.00000 9.38156 2.23614 19.95582
255 5 15 0.00000 8.76125 1.87772 18.61674
256 5 15 0.00000 8.10778 1.47498 17.30725
257 5 15 0.00000 7.47322 1.05290 15.99373
258 5 15 0.00000 6.86384 0.66521 14.65586
259 5 15 0.00000 6.26998 0.34822 13.29106
260 5 15 0.00000 5.68946 0.10493 11.90405
261 5 15 0.00000 5.13541 -0.08243 10.49649
262 5 15 0.00000 4.62988 -0.22988 9.06453
263 5 15 0.00000 4.18860 -0.33798 7.60812
264 5 15 0.00000 3.80293 -0.39324 6.13163
265 5 15 0.00000 3.44473 -0.37936 4.64570
266 5 15 0.00000 3.08204 -0.29672 3.16305
267 5 15 0.00000 2.69903 -0.16667 1.68792
268 5 15 0.00000 2.30233 -0.01734 0.21542
269 5 15 0.00000 1.95332 0.04603 -1.26986
270 5 16 0.00000 1.52261 0.26205 -2.73221
271 6 16 0.40000 -11.22303 -13.25298 29.72618
272 6 16 0.40000 -13.48126 -13.73401 29.18212
273 6 16 0.40000 -12.06917 -12.65544 27.58523
274 6 8 -0.50000 -12.11712 -13.67585 28.63439
275 6 15 0.30000 -11.73100 -14.99574 28.12717
276 6 15 0.40000 -11.51043 -16.36368 27.44897
277 6 3 -0.80000 -11.56205 -17.35601 26.54659
278 6 30 1.70000 -11.82256 -16.72710 25.03035
279 6 2 -0.80000 -10.45648 -16.47894 24.44069
280 6 2 -0.80000 -12.74752 -15.54390 25.28130
281 6 3 -0.70000 -12.58670 -17.95396 24.22363
282 6 15 0.40000 -13.25561 -17.68130 23.06736
283 6 14 0.30000 -14.17184 -17.09890 22.07778
284 6 4 -0.70000 -14.13424 -17.27842 20.59761
285 6 12 0.70000 -15.17133 -17.98325 19.92201
286 6 1 -0.70000 -15.91762 -18.75628 20.51642
287 6 15 0.00000 -15.41803 -17.77419 18.37722
288 6 15 0.00000 -15.95817 -17.69154 16.62326
289 6 15 0.00000 -16.52877 -17.62564 14.86503
290 6 15 0.00000 -17.07696 -17.55247 13.09148
291 6 15 0.00000 -17.58846 -17.47152 11.30396
292 6 15 0.00000 -18.06198 -17.38561 9.50626
293 6 15 0.00000 -18.49823 -17.29846 7.70271
294 6 15 0.00000 -18.89811 -17.21032 5.90081
295 6 15 0.00000 -19.26391 -17.12938 4.10841
296 6 15 0.00000 -19.59451 -17.05935 2.33661
297 6 15 0.00000 -19.88706 -17.00522 0.59705
298 6 15 0.00000 -20.13417 -16.96674 -1.09360
299 6 15 0.00000 -20.34128 -16.95939 -2.73078
300 6 15 0.00000 -20.51802 -16.98382 -4.32330
301 6 15 0.00000 -20.67900 -17.03399 -5.87967
302 6 15 0.00000 -20.90187 -17.00091 -7.55300
303 6 16 0.00000 -21.01673 -17.10859 -9.02855
304 6 15 0.50000 -14.58062 -15.81637 22.58072
305 6 4 -0.70000 -14.79767 -14.74355 23.35322
306 6 12 0.80000 -15.14501 -13.56593 22.79820
307 6 1 -0.60000 -15.46967 -12.56448 23.45977
308 6 15 0.00000 -15.16590 -13.50468 21.36994
309 6 15 0.00000 -15.12116 -13.55208 19.85266
310 6 15 0.00000 -15.01522 -13.61273 18.33969
311 6 15 0.00000 -14.90172 -13.64713 16.82573
312 6 15 0.00000 -14.83600 -13.67138 15.30697
313 6 15 0.00000 -14.84599 -13.71066 13.78572
314 6 15 0.00000 -14.93165 -13.76934 12.26611
315 6 15 0.00000 -15.08239 -13.82809 10.75048
316 6 15 0.00000 -15.29457 -13.85963 9.23992
317 6 15 0.00000 -15.57383 -13.85040 7.74010
318 6 15 0.00000 -15.92658 -13.81523 6.25478
319 6 15 0.00000 -16.35184 -13.78818 4.78683
320 6 15 0.00000 -16.83227 -13.79898 3.33573
321 6 15 0.00000 -17.34214 -13.85162 1.89459
322 6 15 0.00000 -17.86207 -13.92576 0.45511
323 6 15 0.00000 -18.33245 -13.91507 -0.99765
324 6 16 0.00000 -18.89187 -14.05255 -2.42552
325 7 16 0.40000 1.92392 19.00174 28.93173
326 7 16 0.40000 0.56576 20.78101 28.14649
327 7 16 0.40000 1.79749 19.44230 26.59793
328 7 8 -0.50000 1.02451 19.41693 27.84136
329 7 15 0.30000 -0.12847 18.51687 27.74654
330 7 15 0.40000 -1.41500 17.71100 27.47217
331 7 3 -0.80000 -2.49541 17.21944 26.84545
332 7 30 1.70000 -2.27286 17.28729 25.19977
333 7 2 -0.80000 -1.64666 15.97195 24.80836
334 7 2 -0.80000 -1.48550 18.57389 24.99191
335 7 3 -0.70000 -3.81207 17.39620 24.60074
336 7 15 0.40000 -4.00363 17.81207 23.31656
337 7 14 0.30000 -3.97380 18.59423 22.07348
338 7 4 -0.70000 -4.37598 18.13944 20.71115
339 7 12 0.70000 -5.51494 18.69732 20.06285
340 7 1 -0.70000 -6.39411 19.27869 20.69286
341 7 15 0.00000 -5.67642 18.61118 18.49523
342 7 15 0.00000 -6.09641 18.70185 16.70907
343 7 15 0.00000 -6.54358 18.81397 14.91776
344 7 15 0.00000 -6.97851 18.90416 13.11387
345 7 15 0.00000 -7.39528 18.95983 11.30096
346 7 15 0.00000 -7.79537 18.97984 9.48359
347 7 15 0.00000 -8.18169 18.96471 7.66666
348 7 15 0.00000 -8.55353 18.91702 5.85725
349 7 15 0.00000 -8.91789 18.83816 4.06446
350 7 15 0.00000 -9.27586 18.72865 2.29999
351 7 15 0.00000 -9.62899 18.58713 0.57667
352 7 15 0.00000 -9.97153 18.41102 -1.08841
353 7 15 0.00000 -10.31884 18.20144 -2.68803
354 7 15 0.00000 -10.67654 17.96487 -4.23206
355 7 15 0.00000 -11.04588 17.71450 -5.73260
356 7 15 0.00000 -11.38155 17.51872 -7.37571
357 7 16 0.00000 -11.77293 17.22756 -8.77716
358 7 15 0.50000 -2.86402 19.50204 22.16952
359 7 4 -0.70000 -1.83024 20.23338 22.60686
360 7 12 0.80000 -0.97388 20.79195 21.72932
361 7 1 -0.60000 -0.06361 21.57173 22.05999
362 7 15 0.00000 -1.16827 20.48045 20.34755
363 7 15 0.00000 -1.45324 20.05228 18.91861
364 7 15 0.00000 -1.72723 19.56493 17.50744
365 7 15 0.00000 -1.97460 19.07881 16.09017
366 7 15 0.00000 -2.23097 18.63849 14.65772
367 7 15 0.00000 -2.52920 18.26204 13.21370
368 7 15 0.00000 -2.87255 17.94903 11.76314
369 7 15 0.00000 -3.23908 17.69653 10.30533
370 7 15 0.00000 -3.60230 17.51020 8.83525
371 7 15 0.00000 -3.95091 17.40094 7.35400
372 7 15 0.00000 -4.30018 17.37080 5.86776
373 7 15 0.00000 -4.68043 17.40866 4.38774
374 7 15 0.00000 -5.11262 17.48904 2.92372
375 7 15 0.00000 -5.59217 17.58542 1.47445
376 7 15 0.00000 -6.09479 17.68453 0.03033
377 7 15 0.00000 -6.50392 17.76218 -1.43884
378 7 16 0.00000 -7.07696 17.88002 -2.86305
379 8 16 0.40000 -15.29345 20.68117 32.52111
380 8 16 0.40000 -15.79114 18.59611 31.50531
381 8 16 0.40000 -16.51408 20.62945 30.48050
382 8 8 -0.50000 -15.42546 19.99327 31.22511
383 8 15 0.30000 -14.16220 20.03468 30.48287
384 8 15 0.40000 -12.94575 19.95107 29.53783
385 8 3 -0.80000 -12.21133 19.79770 28.42482
386 8 30 1.70000 -13.13664 20.13776 27.08671
387 8 2 -0.80000 -12.95055 21.60951 26.81323
388 8 2 -0.80000 -14.51987 19.62252 27.46045
389 8 3 -0.70000 -12.43895 19.23392 25.88830
390 8 15 0.40000 -13.13184 18.99622 24.73845
391 8 14 0.30000 -14.17184 18.59423 23.78204
392 8 4 -0.70000 -14.24221 18.93112 22.33080
393 8 12 0.70000 -14.10080 17.91823 21.33942
394 8 1 -0.70000 -13.57542 16.83773 21.59308
395 8 15 0.00000 -14.64281 18.13960 19.87376
396 8 15 0.00000 -15.21442 18.10282 18.12823
397 8 15 0.00000 -15.78288 18.03379 16.36942
398 8 15 0.00000 -16.35214 17.99134 14.60152
399 8 15 0.00000 -16.91711 17.98833 12.82833
400 8 15 0.00000 -17.47410 18.02408 11.05299
401 8 15 0.00000 -18.01924 18.09565 9.27863
402 8 15 0.00000 -18.55141 18.20032 7.51217
403 8 15 0.00000 -19.06266 18.33138 5.75875
404 8 15 0.00000 -19.54734 18.48592 4.02822
405 8 15 0.00000 -19.99786 18.66205 2.33100
406 8 15 0.00000 -20.40890 18.86250 0.68427
407 8 15 0.00000 -20.76761 19.07613 -0.91229
408 8 15 0.00000 -21.07849 19.29607 -2.46887
409 8 15 0.00000 -21.35393 19.51307 -3.99457
410 8 15 0.00000 -21.74807 19.72962 -5.62201
411 8 16 0.00000 -21.94025 19.95000 -7.07684
412 8 15 0.50000 -15.41023 18.52089 24.50727
413 8 4 -0.70000 -16.34039 18.48747 25.47084
414 8 12 0.80000 -17.63747 18.69416 25.17031
415 8 1 -0.60000 -18.56142 18.56621 25.99246
416 8 15 0.00000 -17.94062 19.04432 23.81768
417 8 15 0.00000 -18.13504 19.44031 22.36449
418 8 15 0.00000 -18.29375 19.88669 20.92243
419 8 15 0.00000 -18.47374 20.34886 19.48710
420 8 15 0.00000 -18.68167 20.77197 18.04167
421 8 15 0.00000 -18.90464 21.12168 16.57749
422 8 15 0.00000 -19.13796 21.39559 15.09744
423 8 15 0.00000 -19.39492 21.60915 13.61027
424 8 15 0.00000 -19.69883 21.77439 12.12430
425 8 15 0.00000 -20.06324 21.88927 10.64729
426 8 15 0.00000 -20.47637 21.94211 9.17815
427 8 15 0.00000 -20.90632 21.92190 7.71146
428 8 15 0.00000 -21.31957 21.83480 6.24236
429 8 15 0.00000 -21.70402 21.70462 4.76761
430 8 15 0.00000 -22.07235 21.55780 3.28750
431 8 15 0.00000 -22.50173 21.48733 1.82376
432 8 16 0.00000 -22.82512 21.28078 0.33265
433 9 16 0.40000 -4.36839 5.51010 30.95287
434 9 16 0.40000 -3.92805 7.46649 29.68573
435 9 16 0.40000 -4.34028 5.39053 28.57767
436 9 8 -0.50000 -4.72209 6.22841 29.71628
437 9 15 0.30000 -6.15057 6.55623 29.69529
438 9 15 0.40000 -7.60823 7.00665 29.46677
439 9 3 -0.80000 -8.72894 7.41449 28.85084
440 9 30 1.70000 -8.70043 6.94359 27.25716
441 9 2 -0.80000 -9.36020 5.58787 27.21032
442 9 2 -0.80000 -7.23380 7.06792 26.86728
443 9 3 -0.70000 -9.64370 8.07252 26.49844
444 9 15 0.40000 -9.57116 8.20522 25.14350
445 9 14 0.30000 -9.07282 8.39620 23.77489
446 9 4 -0.70000 -9.81198 8.15105 22.50285
447 9 12 0.70000 -10.16224 9.23138 21.64321
448 9 1 -0.70000 -10.20388 10.38966 22.04881
449 9 15 0.00000 -10.48617 8.98010 20.11912
450 9 15 0.00000 -10.85799 8.98947 18.32005
451 9 15 0.00000 -11.23086 9.03167 16.50884
452 9 15 0.00000 -11.61421 9.04862 14.69113
453 9 15 0.00000 -12.01367 9.02892 12.87358
454 9 15 0.00000 -12.43058 8.97397 11.06071
455 9 15 0.00000 -12.86590 8.88732 9.25692
456 9 15 0.00000 -13.31648 8.77147 7.46860
457 9 15 0.00000 -13.78474 8.63451 5.70366
458 9 15 0.00000 -14.26981 8.48002 3.97324
459 9 15 0.00000 -14.77243 8.31104 2.28997
460 9 15 0.00000 -15.28927 8.12510 0.67160
461 9 15 0.00000 -15.82841 7.93623 -0.87662
462 9 15 0.00000 -16.38938 7.75059 -2.36618
463 9 15 0.00000 -16.96398 7.57463 -3.81172
464 9 15 0.00000 -17.48949 7.37609 -5.40396
465 9 16 0.00000 -18.09955 7.21304 -6.74683
466 9 15 0.50000 -7.66540 8.10661 23.79117
467 9 4 -0.70000 -6.40791 7.83995 24.16857
468 9 12 0.80000 -5.52603 7.33437 23.28419
469 9 1 -0.60000 -4.31944 7.17008 23.53546
470 9 15 0.00000 -6.02598 7.01121 21.98429
471 9 15 0.00000 -6.67754 6.67793 20.65359
472 9 15 0.00000 -7.36608 6.30422 19.35349
473 9 15 0.00000 -8.03754 5.90946 18.04986
474 9 15 0.00000 -8.68084 5.54608 16.72108
475 9 15 0.00000 -9.30235 5.25104 15.36369
476 9 15 0.00000 -9.90395 5.02764 13.98233
477 9 15 0.00000 -10.47417 4.85705 12.57910
478 9 15 0.00000 -10.99250 4.72122 11.15057
479 9 15 0.00000 -11.44331 4.61820 9.69671
480 9 15 0.00000 -11.83401 4.56228 8.22157
481 9 15 0.00000 -12.19112 4.57249 6.73535
482 9 15 0.00000 -12.54650 4.65166 5.25074
483 9 15 0.00000 -12.91784 4.78004 3.77248
484 9 15 0.00000 -13.30107 4.92891 2.29637
485 9 15 0.00000 -13.64456 4.98759 0.80962
486 9 16 0.00000 -14.05564 5.20617 -0.65800
487 10 16 0.40000 -18.85337 -3.36859 32.12664
488 10 16 0.40000 -20.37693 -5.02896 31.38572
489 10 16 0.40000 -20.00664 -3.07095 30.06798
490 10 8 -0.50000 -19.36406 -4.06324 30.93211
491 10 15 0.30000 -18.28287 -4.76934 30.23865
492 10 15 0.40000 -17.31291 -5.58568 29.35965
493 10 3 -0.80000 -16.79966 -6.23981 28.30591
494 10 30 1.70000 -17.47384 -5.66299 26.90051
495 10 2 -0.80000 -16.57755 -4.54182 26.43673
496 10 2 -0.80000 -18.91231 -5.34943 27.28905
497 10 3 -0.70000 -17.37590 -6.94886 25.86281
498 10 15 0.40000 -18.13588 -6.95608 24.73094
499 10 14 0.30000 -19.27085 -6.90086 23.79997
500 10 4 -0.70000 -19.21465 -6.77560 22.31481
501 10 12 0.70000 -19.64333 -7.84411 21.47619
502 10 1 -0.70000 -19.72932 -8.99571 21.89367
503 10 15 0.00000 -20.05237 -7.58000 19.97490
504 10 15 0.00000 -20.62820 -7.55863 18.23050
505 10 15 0.00000 -21.21816 -7.56811 16.47746
506 10 15 0.00000 -21.79568 -7.55578 14.71177
507 10 15 0.00000 -22.34970 -7.51279 12.93564
508 10 15 0.00000 -22.87727 -7.44116 11.15242
509 10 15 0.00000 -23.37644 -7.34489 9.36574
510 10 15 0.00000 -23.84737 -7.22596 7.58287
511 10 15 0.00000 -24.28642 -7.09341 5.81010
512 10 15 0.00000 -24.68982 -6.95123 4.05780
513 10 15 0.00000 -25.05163 -6.80348 2.33680
514 10 15 0.00000 -25.36523 -6.64817 0.66397
515 10 15 0.00000 -25.62522 -6.50137 -0.95905
516 10 15 0.00000 -25.83933 -6.36802 -2.54155
517 10 15 0.00000 -26.02327 -6.25094 -4.09177
518 10 15 0.00000 -26.31343 -6.08788 -5.74707
519 10 16 0.00000 -26.42132 -6.00052 -7.22449
520 10 15 0.50000 -20.34747 -6.23686 24.48185
521 10 4 -0.70000 -21.12954 -5.66277 25.40575
522 10 12 0.80000 -22.15287 -4.87002 25.03186
523 10 1 -0.60000 -22.98279 -4.39876 25.82882
524 10 15 0.00000 -22.28672 -4.60204 23.63387
525 10 15 0.00000 -22.30743 -4.36385 22.13413
526 10 15 0.00000 -22.27144 -4.09935 20.63990
527 10 15 0.00000 -22.24550 -3.80971 19.14940
528 10 15 0.00000 -22.26381 -3.54053 17.65315
529 10 15 0.00000 -22.33299 -3.32875 16.14776
530 10 15 0.00000 -22.45011 -3.17838 14.63658
531 10 15 0.00000 -22.61843 -3.06836 13.12567
532 10 15 0.00000 -22.85165 -2.97551 11.62075
533 10 15 0.00000 -23.16217 -2.89363 10.12930
534 10 15 0.00000 -23.54580 -2.83878 8.65226
535 10 15 0.00000 -23.98087 -2.83724 7.18693
536 10 15 0.00000 -24.43556 -2.90143 5.72894
537 10 15 0.00000 -24.88750 -3.01766 4.27227
538 10 15 0.00000 -25.33420 -3.15697 2.81317
539 10 15 0.00000 -25.79414 -3.19810 1.35761
540 10 16 0.00000 -26.23284 -3.41252 -0.10260
541 11 16 0.40000 10.97194 -4.05712 29.77931
542 11 16 0.40000 8.75714 -3.41457 29.22361
543 11 16 0.40000 10.46062 -3.40954 27.54864
544 11 8 -0.50000 9.94752 -4.11891 28.72244
545 11 15 0.30000 9.60478 -5.50949 28.41052
546 11 15 0.40000 9.08858 -6.88144 27.92974
547 11 3 -0.80000 8.51613 -7.82594 27.16691
548 11 30 1.70000 8.54996 -7.36025 25.57180
549 11 2 -0.80000 9.83535 -7.90850 25.00376
550 11 2 -0.80000 8.34874 -5.85203 25.62882
551 11 3 -0.70000 7.24701 -8.13711 24.90946
552 11 15 0.40000 6.76239 -7.72444 23.70381
553 11 14 0.30000 6.22424 -6.90086 22.61292
554 11 4 -0.70000 6.11396 -7.27128 21.17238
555 11 12 0.70000 4.83997 -7.44744 20.56025
556 11 1 -0.70000 3.82938 -7.65727 21.22548
557 11 15 0.00000 4.67517 -7.35192 18.99352
558 11 15 0.00000 4.18569 -7.24613 17.22598
559 11 15 0.00000 3.66134 -7.14006 15.45536
560 11 15 0.00000 3.15947 -7.04099 13.66940
561 11 15 0.00000 2.69275 -6.95545 11.86988
562 11 15 0.00000 2.26100 -6.88598 10.06098
563 11 15 0.00000 1.86195 -6.83483 8.24747
564 11 15 0.00000 1.49492 -6.80076 6.43677
565 11 15 0.00000 1.15416 -6.78860 4.63766
566 11 15 0.00000 0.83917 -6.80059 2.86167
567 11 15 0.00000 0.55034 -6.84088 1.12112
568 11 15 0.00000 0.29480 -6.91070 -0.56728
569 11 15 0.00000 0.06028 -7.02000 -2.19711
570 11 15 0.00000 -0.16221 -7.16568 -3.77737
571 11 15 0.00000 -0.38260 -7.33643 -5.31782
572 11 15 0.00000 -0.61922 -7.42067 -6.98747
573 11 16 0.00000 -0.82548 -7.65287 -8.43853
574 11 15 0.50000 6.52856 -5.53152 22.92478
575 11 4 -0.70000 6.90389 -4.40139 23.53855
576 11 12 0.80000 7.17100 -3.29404 22.81890
577 11 1 -0.60000 7.41356 -2.18613 23.32848
578 11 15 0.00000 7.13212 -3.42219 21.39546
579 11 15 0.00000 7.09263 -3.68803 19.90075
580 11 15 0.00000 7.09966 -3.99517 18.41428
581 11 15 0.00000 7.12632 -4.28375 16.92358
582 11 15 0.00000 7.11649 -4.54044 15.42507
583 11 15 0.00000 7.03352 -4.77254 13.92337
584 11 15 0.00000 6.87542 -4.98325 12.42317
585 11 15 0.00000 6.66108 -5.16101 10.92458
586 11 15 0.00000 6.40731 -5.28413 9.42518
587 11 15 0.00000 6.11620 -5.33743 7.92852
588 11 15 0.00000 5.77493 -5.32990 6.44013
589 11 15 0.00000 5.36746 -5.29081 4.96741
590 11 15 0.00000 4.89394 -5.25434 3.51446
591 11 15 0.00000 4.37440 -5.23765 2.07591
592 11 15 0.00000 3.83548 -5.23413 0.64152
593 11 15 0.00000 3.38132 -5.18449 -0.81559
594 11 16 0.00000 2.77701 -5.21393 -2.23142
595 12 16 0.40000 -1.29584 -15.89856 29.36884
596 12 16 0.40000 0.08417 -14.70885 27.84991
597 12 16 0.40000 -1.44115 -16.35959 27.04010
598 12 8 -0.50000 -1.25426 -15.29344 28.02633
599 12 15 0.30000 -2.27230 -14.24706 27.89536
600 12 15 0.40000 -3.25697 -13.11389 27.54010
601 12 3 -0.80000 -3.99968 -12.25617 26.82289
602 12 30 1.70000 -4.30211 -12.89325 25.31789
603 12 2 -0.80000 -5.59565 -13.65946 25.44087
604 12 2 -0.80000 -3.02354 -13.64723 24.97840
605 12 3 -0.70000 -4.50935 -11.55791 24.36195
606 12 15 0.40000 -4.43539 -11.68587 23.00663
607 12 14 0.30000 -3.97380 -11.99988 21.64786
608 12 4 -0.70000 -4.78175 -11.98507 20.39426
609 12 12 0.70000 -4.52346 -11.02791 19.37156
610 12 1 -0.70000 -3.90909 -9.98984 19.60138
611 12 15 0.00000 -4.99815 -11.28138 17.88786
612 12 15 0.00000 -5.38281 -11.33374 16.09224
613 12 15 0.00000 -5.75098 -11.36021 14.27977
614 12 15 0.00000 -6.14198 -11.40277 12.46410
615 12 15 0.00000 -6.56643 -11.46676 10.65325
616 12 15 0.00000 -7.02452 -11.54966 8.85142
617 12 15 0.00000 -7.51490 -11.64736 7.06238
618 12 15 0.00000 -8.03331 -11.75859 5.29223
619 12 15 0.00000 -8.57700 -11.87418 3.54750
620 12 15 0.00000 -9.14281 -11.99003 1.83872
621 12 15 0.00000 -9.72916 -12.10139 0.17788
622 12 15 0.00000 -10.33383 -12.20951 -1.41696
623 12 15 0.00000 -10.95571 -12.29765 -2.94300
624 12 15 0.00000 -11.59154 -12.36265 -4.41251
625 12 15 0.00000 -12.23158 -12.40579 -5.84051
626 12 15 0.00000 -12.84924 -12.51577 -7.40806
627 12 16 0.00000 -13.50745 -12.51393 -8.73803
628 12 15 0.50000 -2.95275 -13.00391 21.76767
629 12 4 -0.70000 -2.02897 -13.85450 22.23449
630 12 12 0.80000 -1.60495 -14.88187 21.47279
631 12 1 -0.60000 -0.67346 -15.63864 21.79778
632 12 15 0.00000 -2.25640 -15.06594 20.21349
633 12 15 0.00000 -3.04164 -15.18021 18.91860
634 12 15 0.00000 -3.87853 -15.30322 17.65826
635 12 15 0.00000 -4.71276 -15.45343 16.39824
636 12 15 0.00000 -5.50741 -15.59677 15.11002
637 12 15 0.00000 -6.24780 -15.69975 13.78448
638 12 15 0.00000 -6.93351 -15.75795 12.42565
639 12 15 0.00000 -7.56511 -15.79287 11.03887
640 12 15 0.00000 -8.13542 -15.83109 9.62427
641 12 15 0.00000 -8.63243 -15.88274 8.18279
642 12 15 0.00000 -9.05436 -15.93138 6.71601
643 12 15 0.00000 -9.41260 -15.94537 5.23010
644 12 15 0.00000 -9.73172 -15.90315 3.73578
645 12 15 0.00000 -10.03710 -15.81068 2.23984
646 12 15 0.00000 -10.34116 -15.69449 0.74252
647 12 15 0.00000 -10.66160 -15.67598 -0.75041
648 12 16 0.00000 -10.95060 -15.48583 -2.25074
649 13 16 0.40000 -13.93868 -14.10119 29.79801
650 13 16 0.40000 -14.00690 -12.01710 28.66714
651 13 16 0.40000 -13.90168 -14.05228 27.42043
652 13 8 -0.50000 -14.46949 -13.41240 28.60888
653 13 15 0.30000 -15.93478 -13.44774 28.59775
654 13 15 0.40000 -17.46042 -13.35802 28.38745
655 13 3 -0.80000 -18.65231 -13.20035 27.79059