created with groupy

12704 atoms
10016 bonds
7936 angles
4416 dihedrals
224 impropers

58 atom types
54 bond types
55 angle types
43 dihedral types
3 improper types

-21.908902 21.908902 xlo xhi
-21.908902 21.908902 ylo yhi
-52.519188 52.519188 zlo zhi

Masses

1 15.9994
2 15.9994
3 15.9994
4 15.9994
5 15.9994
6 14.0067
7 14.0067
8 14.0067
9 14.0067
10 14.0067
11 14.0067
12 12.0110
13 12.0110
14 13.0190
15 14.0270
16 15.0350
17 16.0430
18 14.0270
19 13.0190
20 1.0080
21 1.0080
22 999.0   # dummy, this type not in this system
23 32.0600
24 63.5460
25 63.5460
26 55.8470
27 65.3700
28 24.3050
29 40.0800
30 30.9738
31 39.9480
32 18.9984
33 35.4350
34 79.9040
35 15.0350
36 15.9994
37 22.9898
38 35.4350
39 12.0110
40 35.4350
41 1.0080
42 32.0600
43 15.0350
44 15.9994
45 12.0110
46 35.4350
47 18.9984
48 12.0110
49 14.0270
50 15.9994
51 12.0110
52 15.9994
53 14.0067
54 28.0800
55 999.0   # dummy, this type not in this system
56 999.0   # dummy, this type not in this system
57 15.9994
58 1.0080

Atoms

1 1 16 0.40000 22.10420 -15.85034 31.38569
2 1 16 0.40000 20.01503 -15.02168 30.62694
3 1 16 0.40000 21.84927 -15.21357 29.10836
4 1 8 -0.50000 21.17320 -15.84404 30.24401
5 1 15 0.30000 20.73035 -17.20466 29.92608
6 1 15 0.40000 20.13170 -18.53500 29.42441
7 1 3 -0.80000 19.54140 -19.44158 28.62985
8 1 30 1.70000 19.75559 -19.02018 27.03645
9 1 2 -0.80000 21.02830 -19.69749 26.59270
10 1 2 -0.80000 19.69177 -17.49893 27.05075
11 1 3 -0.70000 18.44767 -19.69058 26.27500
12 1 15 0.40000 18.10916 -19.26499 25.02478
13 1 14 0.30000 17.74600 -18.42262 23.87741
14 1 4 -0.70000 17.72596 -18.81660 22.43904
15 1 12 0.70000 16.49848 -18.89042 21.72027
16 1 1 -0.70000 15.41927 -18.99054 22.29744
17 1 15 0.00000 16.47868 -18.81865 20.14376
18 1 15 0.00000 16.15505 -18.71189 18.33853
19 1 15 0.00000 15.79712 -18.60173 16.52717
20 1 15 0.00000 15.46216 -18.50097 14.70261
21 1 15 0.00000 15.16196 -18.41723 12.86787
22 1 15 0.00000 14.89577 -18.35292 11.02713
23 1 15 0.00000 14.66069 -18.30994 9.18496
24 1 15 0.00000 14.45555 -18.28684 7.34869
25 1 15 0.00000 14.27342 -18.28766 5.52663
26 1 15 0.00000 14.11260 -18.31432 3.73027
27 1 15 0.00000 13.97206 -18.37067 1.97196
28 1 15 0.00000 13.85729 -18.45819 0.26902
29 1 15 0.00000 13.75465 -18.58549 -1.37311
30 1 15 0.00000 13.65629 -18.74890 -2.96420
31 1 15 0.00000 13.55425 -18.93649 -4.51504
32 1 15 0.00000 13.45529 -19.03962 -6.19741
33 1 16 0.00000 13.35384 -19.28748 -7.65697
34 1 15 0.50000 18.14876 -17.07964 24.19226
35 1 4 -0.70000 18.57369 -15.97387 24.81798
36 1 12 0.80000 19.00382 -14.91358 24.10648
37 1 1 -0.60000 19.30393 -13.82035 24.61712
38 1 15 0.00000 19.07573 -15.07249 22.68743
39 1 15 0.00000 19.14032 -15.37016 21.19961
40 1 15 0.00000 19.24650 -15.71301 19.72477
41 1 15 0.00000 19.37424 -16.03927 18.24714
42 1 15 0.00000 19.46944 -16.33064 16.75798
43 1 15 0.00000 19.49465 -16.59092 15.25883
44 1 15 0.00000 19.44720 -16.82299 13.75421
45 1 15 0.00000 19.34691 -17.01708 12.24571
46 1 15 0.00000 19.21267 -17.15319 10.73202
47 1 15 0.00000 19.04767 -17.21631 9.21665
48 1 15 0.00000 18.83788 -17.21407 7.70410
49 1 15 0.00000 18.56401 -17.17399 6.20082
50 1 15 0.00000 18.22269 -17.12997 4.71147
51 1 15 0.00000 17.83263 -17.10109 3.23273
52 1 15 0.00000 17.42177 -17.08345 1.75665
53 1 15 0.00000 17.10124 -17.02819 0.26465
54 1 16 0.00000 16.62084 -17.03693 -1.19816
55 2 16 0.40000 22.91647 20.92147 29.60574
56 2 16 0.40000 21.37636 22.50989 28.75018
57 2 16 0.40000 22.92185 21.43065 27.28251
58 2 8 -0.50000 22.05968 21.24190 28.45097
59 2 15 0.30000 21.06781 20.18560 28.22985
60 2 15 0.40000 19.94530 19.20974 27.82055
61 2 3 -0.80000 19.00804 18.58895 27.08717
62 2 30 1.70000 19.35549 18.75419 25.47027
63 2 2 -0.80000 20.20366 17.56256 25.10138
64 2 2 -0.80000 19.95438 20.15036 25.36771
65 2 3 -0.70000 17.87339 18.65779 24.73953
66 2 15 0.40000 17.73003 19.09132 23.45491
67 2 14 0.30000 17.74600 19.91796 22.24069
68 2 4 -0.70000 17.53312 19.46303 20.83632
69 2 12 0.70000 16.38167 19.87149 20.10414
70 2 1 -0.70000 15.37498 20.29091 20.66853
71 2 15 0.00000 16.36752 19.82463 18.52663
72 2 15 0.00000 16.09047 19.92290 16.71319
73 2 15 0.00000 15.78383 20.03856 14.89278
74 2 15 0.00000 15.49363 20.13485 13.06034
75 2 15 0.00000 15.22727 20.20007 11.21963
76 2 15 0.00000 14.98310 20.23270 9.37500
77 2 15 0.00000 14.75776 20.23262 7.53112
78 2 15 0.00000 14.55096 20.20221 5.69514
79 2 15 0.00000 14.35484 20.14145 3.87555
80 2 15 0.00000 14.16725 20.05022 2.08390
81 2 15 0.00000 13.98579 19.92645 0.33281
82 2 15 0.00000 13.81509 19.76776 -1.36027
83 2 15 0.00000 13.63922 19.57268 -2.98948
84 2 15 0.00000 13.45252 19.34719 -4.56500
85 2 15 0.00000 13.25277 19.10462 -6.09861
86 2 15 0.00000 13.08994 18.92663 -7.76972
87 2 16 0.00000 12.86631 18.63656 -9.20773
88 2 15 0.50000 18.69405 20.97547 22.45938
89 2 4 -0.70000 19.56514 21.83381 23.00643
90 2 12 0.80000 20.39820 22.54731 22.22388
91 2 1 -0.60000 21.14931 23.43948 22.65500
92 2 15 0.00000 20.37000 22.26550 20.82249
93 2 15 0.00000 20.27415 21.85688 19.36296
94 2 15 0.00000 20.19655 21.39069 17.92052
95 2 15 0.00000 20.14551 20.92990 16.47442
96 2 15 0.00000 20.07996 20.51364 15.01360
97 2 15 0.00000 19.96452 20.15476 13.53925
98 2 15 0.00000 19.79562 19.85215 12.05605
99 2 15 0.00000 19.59537 19.60620 10.56517
100 2 15 0.00000 19.38942 19.42661 9.06413
101 2 15 0.00000 19.18718 19.32579 7.55533
102 2 15 0.00000 18.97277 19.30325 6.04359
103 2 15 0.00000 18.71706 19.34308 4.53711
104 2 15 0.00000 18.40244 19.41660 3.04304
105 2 15 0.00000 18.03751 19.49835 1.55988
106 2 15 0.00000 17.64901 19.57917 0.07986
107 2 15 0.00000 17.35794 19.65362 -1.41735
108 2 16 0.00000 16.89558 19.74173 -2.88333
109 3 16 0.40000 16.86934 -16.16757 29.82033
110 3 16 0.40000 14.87300 -15.14737 29.04522
111 3 16 0.40000 16.67745 -15.54879 27.53189
112 3 8 -0.50000 15.94264 -16.08823 28.67790
113 3 15 0.30000 15.36546 -17.40305 28.38365
114 3 15 0.40000 14.63615 -18.67539 27.90503
115 3 3 -0.80000 13.95731 -19.53219 27.12607
116 3 30 1.70000 14.21121 -19.16257 25.52567
117 3 2 -0.80000 15.40929 -19.97167 25.09508
118 3 2 -0.80000 14.30008 -17.64256 25.51304
119 3 3 -0.70000 12.84205 -19.71194 24.77502
120 3 15 0.40000 12.54676 -19.27673 23.51718
121 3 14 0.30000 12.26878 -18.42262 22.35480
122 3 4 -0.70000 12.20810 -18.83795 20.92359
123 3 12 0.70000 10.97877 -18.80114 20.20515
124 3 1 -0.70000 9.89546 -18.78247 20.78304
125 3 15 0.00000 10.96485 -18.75561 18.62759
126 3 15 0.00000 10.65195 -18.64887 16.82048
127 3 15 0.00000 10.30524 -18.53542 15.00713
128 3 15 0.00000 9.98044 -18.43385 13.18079
129 3 15 0.00000 9.68851 -18.35288 11.34458
130 3 15 0.00000 9.42847 -18.29475 9.50276
131 3 15 0.00000 9.19724 -18.26099 7.65991
132 3 15 0.00000 8.99381 -18.24989 5.82334
133 3 15 0.00000 8.81090 -18.26464 4.00142
134 3 15 0.00000 8.64663 -18.30677 2.20566
135 3 15 0.00000 8.49959 -18.37981 0.44850
136 3 15 0.00000 8.37512 -18.48545 -1.25273
137 3 15 0.00000 8.25879 -18.63082 -2.89244
138 3 15 0.00000 8.14315 -18.81163 -4.48049
139 3 15 0.00000 8.02146 -19.01541 -6.02786
140 3 15 0.00000 7.91118 -19.13781 -7.70824
141 3 16 0.00000 7.78412 -19.40000 -9.16328
142 3 15 0.50000 12.80430 -17.12138 22.64623
143 3 4 -0.70000 13.33839 -16.05285 23.25270
144 3 12 0.80000 13.87192 -15.05371 22.52297
145 3 1 -0.60000 14.28046 -13.98718 23.01449
146 3 15 0.00000 13.92629 -15.24405 21.10701
147 3 15 0.00000 13.95943 -15.57293 19.62474
148 3 15 0.00000 14.02943 -15.95067 18.15628
149 3 15 0.00000 14.12254 -16.31413 16.68475
150 3 15 0.00000 14.18675 -16.63982 15.20106
151 3 15 0.00000 14.18444 -16.92775 13.70676
152 3 15 0.00000 14.11265 -17.18044 12.20643
153 3 15 0.00000 13.99209 -17.39012 10.70151
154 3 15 0.00000 13.84355 -17.53881 9.19034
155 3 15 0.00000 13.67172 -17.61183 7.67618
156 3 15 0.00000 13.46186 -17.61531 6.16364
157 3 15 0.00000 13.19205 -17.57455 4.65964
158 3 15 0.00000 12.85553 -17.52288 3.16944
159 3 15 0.00000 12.46902 -17.48120 1.69008
160 3 15 0.00000 12.06068 -17.44856 0.21356
161 3 15 0.00000 11.74597 -17.38785 -1.27948
162 3 16 0.00000 11.26582 -17.37425 -2.74232
163 4 16 0.40000 21.16524 -16.32263 29.49590
164 4 16 0.40000 22.09503 -14.56319 28.20483
165 4 16 0.40000 21.36248 -16.57177 27.13884
166 4 8 -0.50000 21.06672 -15.61526 28.20743
167 4 15 0.30000 19.74094 -15.01156 28.04518
168 4 15 0.40000 18.42850 -14.29315 27.66938
169 4 3 -0.80000 17.46787 -13.70404 26.94011
170 4 30 1.70000 17.53043 -14.25542 25.37345
171 4 2 -0.80000 16.61563 -15.45343 25.31542
172 4 2 -0.80000 19.01867 -14.44612 25.11408
173 4 3 -0.70000 16.90079 -13.00355 24.49240
174 4 15 0.40000 17.10918 -12.96029 23.14575
175 4 14 0.30000 17.74600 -12.94540 21.82206
176 4 4 -0.70000 17.07894 -13.10610 20.49777
177 4 12 0.70000 17.02637 -12.02506 19.57184
178 4 1 -0.70000 17.18739 -10.86170 19.93032
179 4 15 0.00000 16.78385 -12.28775 18.03459
180 4 15 0.00000 16.56989 -12.30049 16.21003
181 4 15 0.00000 16.36256 -12.28155 14.37211
182 4 15 0.00000 16.14042 -12.28559 12.52766
183 4 15 0.00000 15.89512 -12.32227 10.68324
184 4 15 0.00000 15.62525 -12.38974 8.84315
185 4 15 0.00000 15.33026 -12.48407 7.01154
186 4 15 0.00000 15.01318 -12.60313 5.19501
187 4 15 0.00000 14.67268 -12.73808 3.40088
188 4 15 0.00000 14.30939 -12.88500 1.64021
189 4 15 0.00000 13.92219 -13.04011 -0.07460
190 4 15 0.00000 13.51237 -13.20553 -1.72552
191 4 15 0.00000 13.07445 -13.36565 -3.30853
192 4 15 0.00000 12.61112 -13.51513 -4.83526
193 4 15 0.00000 12.13283 -13.65009 -6.31976
194 4 15 0.00000 11.70986 -13.82472 -7.94501
195 4 16 0.00000 11.19121 -13.93453 -9.33100
196 4 15 0.50000 19.05937 -13.50774 21.97634
197 4 4 -0.70000 20.20157 -13.99860 22.47558
198 4 12 0.80000 21.03189 -14.71580 21.69352
199 4 1 -0.60000 22.15548 -15.10308 22.05896
200 4 15 0.00000 20.58472 -15.00189 20.36600
201 4 15 0.00000 19.99007 -15.26939 18.99442
202 4 15 0.00000 19.34864 -15.56746 17.65140
203 4 15 0.00000 18.71989 -15.88971 16.30716
204 4 15 0.00000 18.12704 -16.18820 14.93933
205 4 15 0.00000 17.57164 -16.42567 13.54255
206 4 15 0.00000 17.05216 -16.59826 12.12117
207 4 15 0.00000 16.57578 -16.72658 10.67898
208 4 15 0.00000 16.15916 -16.83255 9.21508
209 4 15 0.00000 15.81714 -16.92119 7.73093
210 4 15 0.00000 15.54507 -16.97682 6.22936
211 4 15 0.00000 15.32008 -16.97500 4.71746
212 4 15 0.00000 15.11063 -16.90597 3.20485
213 4 15 0.00000 14.89506 -16.78526 1.69535
214 4 15 0.00000 14.67187 -16.64202 0.18618
215 4 15 0.00000 14.47004 -16.59551 -1.32676
216 4 16 0.00000 14.23311 -16.37806 -2.83249
217 5 16 0.40000 11.10618 0.86348 29.29197
218 5 16 0.40000 11.47224 2.88163 28.10030
219 5 16 0.40000 11.34942 0.80433 26.92680
220 5 8 -0.50000 10.79567 1.57664 28.04088
221 5 15 0.30000 9.35024 1.77476 27.89974
222 5 15 0.40000 7.88245 2.09734 27.55132
223 5 3 -0.80000 6.78617 2.41725 26.84597
224 5 30 1.70000 6.99485 1.98947 25.25354
225 5 2 -0.80000 6.46896 0.58132 25.12694
226 5 2 -0.80000 8.47193 2.25488 24.99614
227 5 3 -0.70000 6.02061 3.04677 24.43326
228 5 15 0.40000 6.19697 3.21816 23.09226
229 5 14 0.30000 6.79155 3.48628 21.77601
230 5 4 -0.70000 6.19025 3.20630 20.44013
231 5 12 0.70000 5.81745 4.27110 19.57066
232 5 1 -0.70000 5.63480 5.41077 19.98975
233 5 15 0.00000 5.65034 4.02853 18.02012
234 5 15 0.00000 5.43541 4.04780 16.19573
235 5 15 0.00000 5.21747 4.09995 14.35968
236 5 15 0.00000 4.99201 4.12617 12.51582
237 5 15 0.00000 4.75393 4.11446 10.67012
238 5 15 0.00000 4.50137 4.06594 8.82697
239 5 15 0.00000 4.23268 3.98401 6.99074
240 5 15 0.00000 3.95021 3.87123 5.16810
241 5 15 0.00000 3.65013 3.73529 3.36684
242 5 15 0.00000 3.33201 3.57955 1.59821
243 5 15 0.00000 2.99375 3.40666 -0.12523
244 5 15 0.00000 2.63736 3.21403 -1.78557
245 5 15 0.00000 2.25308 3.01477 -3.37803
246 5 15 0.00000 1.84181 2.81536 -4.91395
247 5 15 0.00000 1.41233 2.62328 -6.40706
248 5 15 0.00000 1.04625 2.41670 -8.04233
249 5 16 0.00000 0.57157 2.23180 -9.43608
250 5 15 0.50000 8.21299 3.32444 21.91124
251 5 4 -0.70000 9.45250 3.16318 22.39332
252 5 12 0.80000 10.44992 2.76066 21.58179
253 5 1 -0.60000 11.64039 2.69978 21.93544
254 5 15 0.00000 10.09550 2.42524 20.23792
255 5 15 0.00000 9.59425 2.06682 18.84988
256 5 15 0.00000 9.05740 1.66408 17.48841
257 5 15 0.00000 8.53973 1.24200 16.12459
258 5 15 0.00000 8.04928 0.85431 14.73870
259 5 15 0.00000 7.57662 0.53732 13.32733
260 5 15 0.00000 7.11920 0.29403 11.89500
261 5 15 0.00000 6.68993 0.10668 10.44451
262 5 15 0.00000 6.31113 -0.04078 8.97395
263 5 15 0.00000 5.99847 -0.14888 7.48461
264 5 15 0.00000 5.74295 -0.20414 5.98013
265 5 15 0.00000 5.51562 -0.19026 4.46864
266 5 15 0.00000 5.28353 -0.10762 2.96002
267 5 15 0.00000 5.03054 0.02243 1.45712
268 5 15 0.00000 4.76369 0.17176 -0.04435
269 5 15 0.00000 4.54546 0.23514 -1.55440
270 5 16 0.00000 4.24384 0.45115 -3.04872
271 6 16 0.40000 -12.84637 -14.57670 29.95408
272 6 16 0.40000 -15.04858 -15.05773 29.21527
273 6 16 0.40000 -13.50269 -13.97916 27.74753
274 6 8 -0.50000 -13.64190 -14.99957 28.78852
275 6 15 0.30000 -13.21304 -16.31946 28.31689
276 6 15 0.40000 -12.93420 -17.68740 27.66049
277 6 3 -0.80000 -12.90698 -18.67973 26.75704
278 6 30 1.70000 -13.03435 -18.05082 25.22387
279 6 2 -0.80000 -11.62208 -17.80266 24.75551
280 6 2 -0.80000 -13.97766 -16.86762 25.39324
281 6 3 -0.70000 -13.72528 -19.27768 24.35362
282 6 15 0.40000 -14.29086 -19.00502 23.14345
283 6 14 0.30000 -15.11735 -18.42262 22.07778
284 6 4 -0.70000 -14.95090 -18.60214 20.60652
285 6 12 0.70000 -15.92515 -19.30697 19.84310
286 6 1 -0.70000 -16.72041 -20.08000 20.37021
287 6 15 0.00000 -16.03628 -19.09791 18.28269
288 6 15 0.00000 -16.42150 -19.01527 16.48833
289 6 15 0.00000 -16.83669 -18.94936 14.68706
290 6 15 0.00000 -17.22821 -18.87619 12.87248
291 6 15 0.00000 -17.58197 -18.79524 11.04718
292 6 15 0.00000 -17.89701 -18.70933 9.21505
293 6 15 0.00000 -18.17441 -18.62218 7.38034
294 6 15 0.00000 -18.41573 -18.53404 5.55045
295 6 15 0.00000 -18.62392 -18.45310 3.73299
296 6 15 0.00000 -18.79884 -18.38307 1.93911
297 6 15 0.00000 -18.93866 -18.32894 0.18068
298 6 15 0.00000 -19.03748 -18.29046 -1.52508
299 6 15 0.00000 -19.10111 -18.28311 -3.17408
300 6 15 0.00000 -19.13838 -18.30754 -4.77595
301 6 15 0.00000 -19.16310 -18.35771 -6.34042
302 6 15 0.00000 -19.23928 -18.32463 -8.02681
303 6 16 0.00000 -19.22511 -18.43231 -9.50676
304 6 15 0.50000 -15.56842 -17.14009 22.54318
305 6 4 -0.70000 -15.85197 -16.06727 23.29382
306 6 12 0.80000 -16.14961 -14.88965 22.71064
307 6 1 -0.60000 -16.53069 -13.88820 23.34140
308 6 15 0.00000 -16.04594 -14.82840 21.28600
309 6 15 0.00000 -15.86913 -14.87581 19.77839
310 6 15 0.00000 -15.63173 -14.93645 18.28041
311 6 15 0.00000 -15.38671 -14.97085 16.78210
312 6 15 0.00000 -15.18887 -14.99510 15.27485
313 6 15 0.00000 -15.06624 -15.03438 13.75851
314 6 15 0.00000 -15.01913 -15.09306 12.23722
315 6 15 0.00000 -15.03720 -15.15181 10.71422
316 6 15 0.00000 -15.11692 -15.18335 9.19092
317 6 15 0.00000 -15.26440 -15.17412 7.67246
318 6 15 0.00000 -15.48636 -15.13895 6.16206
319 6 15 0.00000 -15.78205 -15.11190 4.66263
320 6 15 0.00000 -16.13418 -15.12270 3.17518
321 6 15 0.00000 -16.51651 -15.17534 1.69508
322 6 15 0.00000 -16.90900 -15.24948 0.21576
323 6 15 0.00000 -17.25098 -15.23879 -1.27246
324 6 16 0.00000 -17.68383 -15.37627 -2.74365
325 7 16 0.40000 1.11464 20.32547 29.41965
326 7 16 0.40000 -0.16991 22.10474 28.51903
327 7 16 0.40000 1.19209 20.76602 27.08371
328 7 8 -0.50000 0.31368 20.74066 28.25504
329 7 15 0.30000 -0.82665 19.84059 28.06010
330 7 15 0.40000 -2.08437 19.03473 27.67464
331 7 3 -0.80000 -3.10604 18.54317 26.95614
332 7 30 1.70000 -2.74091 18.61101 25.33612
333 7 2 -0.80000 -2.08298 17.29567 25.00078
334 7 2 -0.80000 -1.93843 19.89761 25.19767
335 7 3 -0.70000 -4.22206 18.71993 24.60522
336 7 15 0.40000 -4.30096 19.13579 23.30923
337 7 14 0.30000 -4.16290 19.91796 22.07348
338 7 4 -0.70000 -4.44481 19.46316 20.68128
339 7 12 0.70000 -5.52294 20.02104 19.93618
340 7 1 -0.70000 -6.45368 20.60241 20.48717
341 7 15 0.00000 -5.54718 19.93490 18.36045
342 7 15 0.00000 -5.80990 20.02557 16.54448
343 7 15 0.00000 -6.09924 20.13769 14.72102
344 7 15 0.00000 -6.37529 20.22788 12.88608
345 7 15 0.00000 -6.63248 20.28355 11.04375
346 7 15 0.00000 -6.87265 20.30357 9.19842
347 7 15 0.00000 -7.09915 20.28843 7.35474
348 7 15 0.00000 -7.31187 20.24074 5.51981
349 7 15 0.00000 -7.51859 20.16188 3.70209
350 7 15 0.00000 -7.72141 20.05237 1.91313
351 7 15 0.00000 -7.92301 19.91085 0.16559
352 7 15 0.00000 -8.11911 19.73474 -1.52301
353 7 15 0.00000 -8.32569 19.52516 -3.14681
354 7 15 0.00000 -8.54745 19.28859 -4.71614
355 7 15 0.00000 -8.78461 19.03822 -6.24316
356 7 15 0.00000 -8.97580 18.84244 -7.90927
357 7 16 0.00000 -9.24355 18.55128 -9.33951
358 7 15 0.50000 -3.06571 20.82576 22.26588
359 7 4 -0.70000 -2.07399 21.55710 22.79166
360 7 12 0.80000 -1.14440 22.11567 21.99209
361 7 1 -0.60000 -0.26642 22.89545 22.40084
362 7 15 0.00000 -1.21763 21.80417 20.59863
363 7 15 0.00000 -1.37697 21.37600 19.15030
364 7 15 0.00000 -1.52693 20.88865 17.72062
365 7 15 0.00000 -1.64983 20.40253 16.28718
366 7 15 0.00000 -1.78038 19.96221 14.83783
367 7 15 0.00000 -1.95162 19.58576 13.37332
368 7 15 0.00000 -2.16724 19.27275 11.89835
369 7 15 0.00000 -2.40531 19.02025 10.41415
370 7 15 0.00000 -2.63903 18.83393 8.91800
371 7 15 0.00000 -2.85721 18.72466 7.41201
372 7 15 0.00000 -3.07562 18.69452 5.90098
373 7 15 0.00000 -3.32543 18.73239 4.39346
374 7 15 0.00000 -3.62838 18.81276 2.89733
375 7 15 0.00000 -3.97979 18.90914 1.41179
376 7 15 0.00000 -4.35463 19.00825 -0.07064
377 7 15 0.00000 -4.63416 19.08591 -1.56988
378 7 16 0.00000 -5.08089 19.20374 -3.03862
379 8 16 0.40000 -16.99636 22.00489 32.39010
380 8 16 0.40000 -17.40362 19.91983 31.33478
381 8 16 0.40000 -18.03449 21.95317 30.25087
382 8 8 -0.50000 -17.01491 21.31699 31.08753
383 8 15 0.30000 -15.69177 21.35840 30.45821
384 8 15 0.40000 -14.39758 21.27479 29.62278
385 8 3 -0.80000 -13.56895 21.12142 28.57802
386 8 30 1.70000 -14.37412 21.46148 27.16436
387 8 2 -0.80000 -14.16490 22.93323 26.90814
388 8 2 -0.80000 -15.78465 20.94624 27.41612
389 8 3 -0.70000 -13.57463 20.55765 26.03132
390 8 15 0.40000 -14.16467 20.31994 24.82546
391 8 14 0.30000 -15.11735 19.91796 23.78204
392 8 4 -0.70000 -15.06097 20.25484 22.33019
393 8 12 0.70000 -14.83369 19.24196 21.35491
394 8 1 -0.70000 -14.33242 18.16145 21.65340
395 8 15 0.00000 -15.24590 19.46332 19.84758
396 8 15 0.00000 -15.66321 19.42654 18.05887
397 8 15 0.00000 -16.07621 19.35751 16.25722
398 8 15 0.00000 -16.48923 19.31506 14.44643
399 8 15 0.00000 -16.89750 19.31206 12.63074
400 8 15 0.00000 -17.29764 19.34780 10.81362
401 8 15 0.00000 -17.68606 19.41938 8.99849
402 8 15 0.00000 -18.06225 19.52404 7.19238
403 8 15 0.00000 -18.41873 19.65510 5.40107
404 8 15 0.00000 -18.75074 19.80964 3.63489
405 8 15 0.00000 -19.05162 19.98577 1.90485
406 8 15 0.00000 -19.31758 20.18622 0.22857
407 8 15 0.00000 -19.53577 20.39985 -1.39318
408 8 15 0.00000 -19.70981 20.61979 -2.97093
409 8 15 0.00000 -19.85123 20.83679 -4.51483
410 8 15 0.00000 -20.10202 21.05334 -6.17043
411 8 16 0.00000 -20.16668 21.27372 -7.63648
412 8 15 0.50000 -16.41424 19.84461 24.39657
413 8 4 -0.70000 -17.42484 19.81119 25.27542
414 8 12 0.80000 -18.69080 20.01789 24.86298
415 8 1 -0.60000 -19.68288 19.88993 25.60147
416 8 15 0.00000 -18.87490 20.36804 23.48908
417 8 15 0.00000 -18.94193 20.76403 22.02446
418 8 15 0.00000 -18.97435 21.21041 20.57406
419 8 15 0.00000 -19.02856 21.67259 19.12851
420 8 15 0.00000 -19.10971 22.09569 17.67045
421 8 15 0.00000 -19.20422 22.44540 16.19241
422 8 15 0.00000 -19.30767 22.71931 14.69766
423 8 15 0.00000 -19.43403 22.93287 13.19376
424 8 15 0.00000 -19.60727 23.09812 11.68695
425 8 15 0.00000 -19.84156 23.21299 10.18380
426 8 15 0.00000 -20.12508 23.26583 8.68425
427 8 15 0.00000 -20.42556 23.24563 7.18566
428 8 15 0.00000 -20.70921 23.15852 5.68613
429 8 15 0.00000 -20.96366 23.02835 4.18349
430 8 15 0.00000 -21.20158 22.88152 2.67692
431 8 15 0.00000 -21.50175 22.81106 1.18132
432 8 16 0.00000 -21.69396 22.60450 -0.33230
433 9 16 0.40000 -5.57920 6.07741 31.33558
434 9 16 0.40000 -5.03010 8.03380 30.11163
435 9 16 0.40000 -5.34419 5.95784 28.97186
436 9 8 -0.50000 -5.82378 6.79572 30.07286
437 9 15 0.30000 -7.24500 7.12354 29.92745
438 9 15 0.40000 -8.67719 7.57396 29.57276
439 9 3 -0.80000 -9.73995 7.98180 28.86150
440 9 30 1.70000 -9.57266 7.51090 27.27637
441 9 2 -0.80000 -10.22583 6.15518 27.17220
442 9 2 -0.80000 -8.07763 7.63523 27.01580
443 9 3 -0.70000 -10.44621 8.63982 26.43832
444 9 15 0.40000 -10.25585 8.77253 25.09486
445 9 14 0.30000 -9.64012 8.96350 23.77489
446 9 4 -0.70000 -10.26561 8.71836 22.44327
447 9 12 0.70000 -10.53962 9.79869 21.55638
448 9 1 -0.70000 -10.61645 10.95697 21.95680
449 9 15 0.00000 -10.72948 9.54741 20.00985
450 9 15 0.00000 -10.94309 9.55678 18.18522
451 9 15 0.00000 -11.15668 9.59898 16.34841
452 9 15 0.00000 -11.38015 9.61593 14.50419
453 9 15 0.00000 -11.61968 9.59623 12.65875
454 9 15 0.00000 -11.87700 9.54128 10.81645
455 9 15 0.00000 -12.15345 9.45463 8.98158
456 9 15 0.00000 -12.44646 9.33878 7.16079
457 9 15 0.00000 -12.75911 9.20182 5.36175
458 9 15 0.00000 -13.09152 9.04733 3.59564
459 9 15 0.00000 -13.44551 8.87835 1.87498
460 9 15 0.00000 -13.81934 8.69241 0.21771
461 9 15 0.00000 -14.22149 8.50353 -1.37160
462 9 15 0.00000 -14.65050 8.31790 -2.90439
463 9 15 0.00000 -15.09693 8.14194 -4.39451
464 9 15 0.00000 -15.48167 7.94340 -6.02649
465 9 16 0.00000 -15.97236 7.78035 -7.41741
466 9 15 0.50000 -8.23948 8.67392 23.91378
467 9 4 -0.70000 -7.01967 8.40726 24.39934
468 9 12 0.80000 -6.06407 7.90168 23.59518
469 9 1 -0.60000 -4.88397 7.73739 23.95066
470 9 15 0.00000 -6.44882 7.57852 22.25666
471 9 15 0.00000 -6.98193 7.24524 20.87423
472 9 15 0.00000 -7.55453 6.87153 19.51907
473 9 15 0.00000 -8.10982 6.47677 18.16188
474 9 15 0.00000 -8.63487 6.11339 16.78209
475 9 15 0.00000 -9.13571 5.81835 15.37569
476 9 15 0.00000 -9.61462 5.59495 13.94715
477 9 15 0.00000 -10.06037 5.42436 12.49956
478 9 15 0.00000 -10.45222 5.28853 11.03130
479 9 15 0.00000 -10.77460 5.18551 9.54368
480 9 15 0.00000 -11.03525 5.12959 8.04010
481 9 15 0.00000 -11.26147 5.13980 6.52842
482 9 15 0.00000 -11.48610 5.21897 5.01848
483 9 15 0.00000 -11.72719 5.34735 3.51348
484 9 15 0.00000 -11.98031 5.49622 2.00959
485 9 15 0.00000 -12.19292 5.55490 0.49855
486 9 16 0.00000 -12.47452 5.77348 -0.99930
487 10 16 0.40000 -20.90440 -3.93590 32.13134
488 10 16 0.40000 -22.35758 -5.59627 31.26045
489 10 16 0.40000 -21.87385 -3.63826 29.98000
490 10 8 -0.50000 -21.30904 -4.63055 30.89685
491 10 15 0.30000 -20.17151 -5.33665 30.30026
492 10 15 0.40000 -19.12864 -6.15299 29.50914
493 10 3 -0.80000 -18.52550 -6.80712 28.50414
494 10 30 1.70000 -19.07463 -6.23030 27.04533
495 10 2 -0.80000 -18.14133 -5.10913 26.66144
496 10 2 -0.80000 -20.54149 -5.91674 27.30703
497 10 3 -0.70000 -18.88662 -7.51617 26.02011
498 10 15 0.40000 -19.54506 -7.52339 24.82631
499 10 14 0.30000 -20.59458 -7.46817 23.79997
500 10 4 -0.70000 -20.40914 -7.34291 22.32536
501 10 12 0.70000 -20.76310 -8.41142 21.45257
502 10 1 -0.70000 -20.88515 -9.56301 21.86097
503 10 15 0.00000 -21.03974 -8.14731 19.92134
504 10 15 0.00000 -21.46135 -8.12594 18.13339
505 10 15 0.00000 -21.89627 -8.13542 16.33560
506 10 15 0.00000 -22.31770 -8.12309 14.52630
507 10 15 0.00000 -22.71481 -8.08010 12.70864
508 10 15 0.00000 -23.08496 -8.00846 10.88623
509 10 15 0.00000 -23.42652 -7.91220 9.06284
510 10 15 0.00000 -23.74026 -7.79327 7.24571
511 10 15 0.00000 -24.02313 -7.66072 5.44142
512 10 15 0.00000 -24.27228 -7.51854 3.66063
513 10 15 0.00000 -24.48272 -7.37079 1.91465
514 10 15 0.00000 -24.64933 -7.21548 0.22085
515 10 15 0.00000 -24.76687 -7.06868 -1.41865
516 10 15 0.00000 -24.84224 -6.93533 -3.01380
517 10 15 0.00000 -24.89037 -6.81825 -4.57414
518 10 15 0.00000 -25.03516 -6.65519 -6.24844
519 10 16 0.00000 -25.01387 -6.56782 -7.72964
520 10 15 0.50000 -21.72652 -6.80417 24.38542
521 10 4 -0.70000 -22.58614 -6.23008 25.23764
522 10 12 0.80000 -23.57299 -5.43733 24.77599
523 10 1 -0.60000 -24.46922 -4.96607 25.49758
524 10 15 0.00000 -23.58449 -5.16935 23.37165
525 10 15 0.00000 -23.47441 -4.93116 21.87581
526 10 15 0.00000 -23.30832 -4.66666 20.39040
527 10 15 0.00000 -23.15258 -4.37702 18.90784
528 10 15 0.00000 -23.04041 -4.10784 17.41569
529 10 15 0.00000 -22.97812 -3.89605 15.91000
530 10 15 0.00000 -22.96309 -3.74569 14.39436
531 10 15 0.00000 -22.99909 -3.63567 12.87452
532 10 15 0.00000 -23.10026 -3.54282 11.35501
533 10 15 0.00000 -23.27960 -3.46094 9.84217
534 10 15 0.00000 -23.53305 -3.40609 8.33731
535 10 15 0.00000 -23.83874 -3.40455 6.83964
536 10 15 0.00000 -24.16464 -3.46874 5.34757
537 10 15 0.00000 -24.48790 -3.58497 3.85706
538 10 15 0.00000 -24.80573 -3.72428 2.36457
539 10 15 0.00000 -25.13706 -3.76541 0.87447
540 10 16 0.00000 -25.44682 -3.97983 -0.61842
541 11 16 0.40000 10.89659 -4.62443 30.16583
542 11 16 0.40000 8.73865 -3.98188 29.41921
543 11 16 0.40000 10.58163 -3.97685 27.89909
544 11 8 -0.50000 9.96818 -4.68622 29.02370
545 11 15 0.30000 9.65393 -6.07680 28.68309
546 11 15 0.40000 9.18160 -7.44875 28.15915
547 11 3 -0.80000 8.67782 -8.39325 27.34933
548 11 30 1.70000 8.85054 -7.92756 25.76324
549 11 2 -0.80000 10.18054 -8.47581 25.30939
550 11 2 -0.80000 8.64511 -6.41933 25.80251
551 11 3 -0.70000 7.61027 -8.70442 24.98986
552 11 15 0.40000 7.23258 -8.29175 23.74656
553 11 14 0.30000 6.79155 -7.46817 22.61292
554 11 4 -0.70000 6.80724 -7.83859 21.16825
555 11 12 0.70000 5.59145 -8.01475 20.44741
556 11 1 -0.70000 4.52672 -8.22458 21.02203
557 11 15 0.00000 5.56382 -7.91922 18.87228
558 11 15 0.00000 5.23026 -7.81344 17.06881
559 11 15 0.00000 4.86222 -7.70736 15.25922
560 11 15 0.00000 4.51792 -7.60830 13.43632
561 11 15 0.00000 4.20981 -7.52276 11.60297
562 11 15 0.00000 3.93737 -7.45329 9.76333
563 11 15 0.00000 3.69789 -7.40214 7.92194
564 11 15 0.00000 3.49007 -7.36807 6.08613
565 11 15 0.00000 3.30741 -7.35591 4.26417
566 11 15 0.00000 3.14840 -7.36790 2.46749
567 11 15 0.00000 3.01238 -7.40819 0.70839
568 11 15 0.00000 2.90496 -7.47801 -0.99585
569 11 15 0.00000 2.81338 -7.58731 -2.63993
570 11 15 0.00000 2.72947 -7.73299 -4.23357
571 11 15 0.00000 2.64418 -7.90374 -5.78736
572 11 15 0.00000 2.55397 -7.98798 -7.47128
573 11 16 0.00000 2.47497 -8.22018 -8.93480
574 11 15 0.50000 7.06753 -6.09883 22.95012
575 11 4 -0.70000 7.38794 -4.96869 23.59426
576 11 12 0.80000 7.71676 -3.86135 22.90063
577 11 1 -0.60000 7.91398 -2.75344 23.42942
578 11 15 0.00000 7.80208 -3.98950 21.47922
579 11 15 0.00000 7.89302 -4.25534 19.98675
580 11 15 0.00000 8.02958 -4.56248 18.50655
581 11 15 0.00000 8.18605 -4.85106 17.02385
582 11 15 0.00000 8.30687 -5.10775 15.53018
583 11 15 0.00000 8.35509 -5.33984 14.02697
584 11 15 0.00000 8.32834 -5.55056 12.51870
585 11 15 0.00000 8.24544 -5.72832 11.00714
586 11 15 0.00000 8.12331 -5.85144 9.49131
587 11 15 0.00000 7.96375 -5.90474 7.97498
588 11 15 0.00000 7.75350 -5.89721 6.46252
589 11 15 0.00000 7.47594 -5.85812 4.95989
590 11 15 0.00000 7.13085 -5.82165 3.47119
591 11 15 0.00000 6.73866 -5.80496 1.99284
592 11 15 0.00000 6.32681 -5.80144 0.51693
593 11 15 0.00000 6.00138 -5.75180 -0.97421
594 11 16 0.00000 5.52277 -5.78124 -2.43733
595 12 16 0.40000 -2.16806 -16.84408 29.57286
596 12 16 0.40000 -0.66092 -15.65437 28.17998
597 12 16 0.40000 -2.10986 -17.30511 27.24031
598 12 8 -0.50000 -2.00963 -16.23895 28.23908
599 12 15 0.30000 -3.01238 -15.19257 28.01988
600 12 15 0.40000 -3.96234 -14.05940 27.58016
601 12 3 -0.80000 -4.63972 -13.20169 26.80094
602 12 30 1.70000 -4.80983 -13.83876 25.27531
603 12 2 -0.80000 -6.10916 -14.60498 25.28508
604 12 2 -0.80000 -3.50653 -14.59274 25.04855
605 12 3 -0.70000 -4.93297 -12.50342 24.30495
606 12 15 0.40000 -4.74116 -12.63138 22.96123
607 12 14 0.30000 -4.16290 -12.94540 21.64786
608 12 4 -0.70000 -4.85852 -12.93058 20.32861
609 12 12 0.70000 -4.51208 -11.97343 19.33231
610 12 1 -0.70000 -3.92008 -10.93536 19.61481
611 12 15 0.00000 -4.85564 -12.22689 17.81289
612 12 15 0.00000 -5.08235 -12.27926 15.99057
613 12 15 0.00000 -5.29115 -12.30573 14.15291
614 12 15 0.00000 -5.52242 -12.34829 12.31007
615 12 15 0.00000 -5.78743 -12.41228 10.46913
616 12 15 0.00000 -6.08673 -12.49518 8.63422
617 12 15 0.00000 -6.41932 -12.59287 6.80925
618 12 15 0.00000 -6.78147 -12.70410 5.00066
619 12 15 0.00000 -7.17103 -12.81969 3.21518
620 12 15 0.00000 -7.58576 -12.93554 1.46359
621 12 15 0.00000 -8.02513 -13.04690 -0.24203
622 12 15 0.00000 -8.48850 -13.15503 -1.88350
623 12 15 0.00000 -8.97501 -13.24317 -3.45794
624 12 15 0.00000 -9.48034 -13.30816 -4.97727
625 12 15 0.00000 -9.99349 -13.35131 -6.45562
626 12 15 0.00000 -10.47218 -13.46129 -8.07104
627 12 16 0.00000 -11.01197 -13.45944 -9.45331
628 12 15 0.50000 -3.15618 -13.94942 21.85621
629 12 4 -0.70000 -2.27660 -14.80002 22.40176
630 12 12 0.80000 -1.78781 -15.82738 21.67991
631 12 1 -0.60000 -0.88819 -16.58415 22.08485
632 12 15 0.00000 -2.32702 -16.01146 20.36863
633 12 15 0.00000 -2.99641 -16.12573 19.01023
634 12 15 0.00000 -3.72028 -16.24873 17.68174
635 12 15 0.00000 -4.44152 -16.39894 16.35381
636 12 15 0.00000 -5.12087 -16.54228 15.00123
637 12 15 0.00000 -5.74292 -16.64527 13.61621
638 12 15 0.00000 -6.30758 -16.70347 12.20279
639 12 15 0.00000 -6.81592 -16.73839 10.76623
640 12 15 0.00000 -7.26077 -16.77660 9.30732
641 12 15 0.00000 -7.63025 -16.82825 7.82800
642 12 15 0.00000 -7.92273 -16.87690 6.33003
643 12 15 0.00000 -8.15010 -16.89089 4.81855
644 12 15 0.00000 -8.33777 -16.84867 3.30210
645 12 15 0.00000 -8.51161 -16.75620 1.78525
646 12 15 0.00000 -8.68401 -16.64001 0.26712
647 12 15 0.00000 -8.87311 -16.62150 -1.24806
648 12 16 0.00000 -9.03025 -16.43134 -2.76786
649 13 16 0.40000 -15.89363 -15.04671 30.23607
650 13 16 0.40000 -15.86304 -12.96261 29.10355
651 13 16 0.40000 -15.64956 -14.99780 27.87075
652 13 8 -0.50000 -16.31878 -14.35792 29.00520
653 13 15 0.30000 -17.77753 -14.39325 28.86640
654 13 15 0.40000 -19.27904 -14.30353 28.52393