created with groupy

11694 atoms
9006 bonds
6756 angles
3496 dihedrals
174 impropers

58 atom types
54 bond types
55 angle types
43 dihedral types
3 improper types

-20.784610 20.784610 xlo xhi
-20.784610 20.784610 ylo yhi
-54.740688 54.740688 zlo zhi

Masses

1 15.9994
2 15.9994
3 15.9994
4 15.9994
5 15.9994
6 14.0067
7 14.0067
8 14.0067
9 14.0067
10 14.0067
11 14.0067
12 12.0110
13 12.0110
14 13.0190
15 14.0270
16 15.0350
17 16.0430
18 14.0270
19 13.0190
20 1.0080
21 1.0080
22 999.0   # dummy, this type not in this system
23 32.0600
24 63.5460
25 63.5460
26 55.8470
27 65.3700
28 24.3050
29 40.0800
30 30.9738
31 39.9480
32 18.9984
33 35.4350
34 79.9040
35 15.0350
36 15.9994
37 22.9898
38 35.4350
39 12.0110
40 35.4350
41 1.0080
42 32.0600
43 15.0350
44 15.9994
45 12.0110
46 35.4350
47 18.9984
48 12.0110
49 14.0270
50 15.9994
51 12.0110
52 15.9994
53 14.0067
54 28.0800
55 999.0   # dummy, this type not in this system
56 999.0   # dummy, this type not in this system
57 15.9994
58 1.0080

Atoms

1 1 16 0.40000 21.88140 -14.86659 30.88900
2 1 16 0.40000 19.72436 -14.03792 30.35279
3 1 16 0.40000 21.38982 -14.22982 28.65080
4 1 8 -0.50000 20.83616 -14.86029 29.85090
5 1 15 0.30000 20.36250 -16.22090 29.58100
6 1 15 0.40000 19.71470 -17.55124 29.14465
7 1 3 -0.80000 19.04457 -18.45782 28.41614
8 1 30 1.70000 19.09103 -18.03643 26.80908
9 1 2 -0.80000 20.31039 -18.71374 26.23473
10 1 2 -0.80000 19.02906 -16.51518 26.82997
11 1 3 -0.70000 17.71068 -18.70683 26.18852
12 1 15 0.40000 17.24334 -18.28123 24.98054
13 1 14 0.30000 16.76225 -17.43887 23.87741
14 1 4 -0.70000 16.59196 -17.83284 22.44902
15 1 12 0.70000 15.29608 -17.90666 21.86249
16 1 1 -0.70000 14.28311 -18.00678 22.54931
17 1 15 0.00000 15.11159 -17.83490 20.29668
18 1 15 0.00000 14.60104 -17.72814 18.53517
19 1 15 0.00000 14.05573 -17.61797 16.77115
20 1 15 0.00000 13.53189 -17.51722 14.99160
21 1 15 0.00000 13.04155 -17.43347 13.19829
22 1 15 0.00000 12.58441 -17.36916 11.39545
23 1 15 0.00000 12.15806 -17.32619 9.58795
24 1 15 0.00000 11.76210 -17.30308 7.78318
25 1 15 0.00000 11.39051 -17.30390 5.99014
26 1 15 0.00000 11.04280 -17.33056 4.22043
27 1 15 0.00000 10.71923 -17.38691 2.48645
28 1 15 0.00000 10.42708 -17.47443 0.80483
29 1 15 0.00000 10.15336 -17.60174 -0.81757
30 1 15 0.00000 9.88923 -17.76515 -2.38967
31 1 15 0.00000 9.62564 -17.95273 -3.92135
32 1 15 0.00000 9.35136 -18.05587 -5.58416
33 1 16 0.00000 9.09791 -18.30372 -7.02512
34 1 15 0.50000 17.19571 -16.09588 24.14844
35 1 4 -0.70000 17.68371 -14.99011 24.72631
36 1 12 0.80000 18.03712 -13.92983 23.97374
37 1 1 -0.60000 18.38896 -12.83659 24.45022
38 1 15 0.00000 17.96030 -14.08874 22.55496
39 1 15 0.00000 17.86902 -14.38641 21.06853
40 1 15 0.00000 17.82046 -14.72925 19.59067
41 1 15 0.00000 17.79304 -15.05551 18.10778
42 1 15 0.00000 17.73206 -15.34688 16.61684
43 1 15 0.00000 17.60043 -15.60716 15.12326
44 1 15 0.00000 17.39596 -15.83924 13.63184
45 1 15 0.00000 17.13854 -16.03333 12.14209
46 1 15 0.00000 16.84681 -16.16944 10.65073
47 1 15 0.00000 16.52432 -16.23255 9.16090
48 1 15 0.00000 16.15757 -16.23032 7.67857
49 1 15 0.00000 15.72807 -16.19023 6.21215
50 1 15 0.00000 15.23293 -16.14621 4.76663
51 1 15 0.00000 14.69044 -16.11733 3.33677
52 1 15 0.00000 14.12754 -16.09969 1.91173
53 1 15 0.00000 13.65280 -16.04444 0.46140
54 1 16 0.00000 13.02214 -16.05317 -0.94318
55 2 16 0.40000 22.67424 19.93771 29.02493
56 2 16 0.40000 21.05314 21.52613 28.33504
57 2 16 0.40000 22.43675 20.44690 26.71386
58 2 8 -0.50000 21.70145 20.25814 27.96605
59 2 15 0.30000 20.69190 19.20184 27.84982
60 2 15 0.40000 19.53275 18.22598 27.56010
61 2 3 -0.80000 18.52397 17.60520 26.92870
62 2 30 1.70000 18.70050 17.77043 25.28434
63 2 2 -0.80000 19.50546 16.57880 24.82882
64 2 2 -0.80000 19.28539 19.16660 25.11974
65 2 3 -0.70000 17.15013 17.67403 24.71253
66 2 15 0.40000 16.87328 18.10756 23.44993
67 2 14 0.30000 16.76225 18.93420 22.24069
68 2 4 -0.70000 16.40374 18.47927 20.86626
69 2 12 0.70000 15.18205 18.88773 20.25846
70 2 1 -0.70000 14.23988 19.30715 20.92498
71 2 15 0.00000 15.00309 18.84087 18.69107
72 2 15 0.00000 14.53800 18.93914 16.91652
73 2 15 0.00000 14.04276 19.05480 15.13814
74 2 15 0.00000 13.56261 19.15109 13.34607
75 2 15 0.00000 13.10530 19.21631 11.54328
76 2 15 0.00000 12.66965 19.24894 9.73428
77 2 15 0.00000 12.25281 19.24886 7.92405
78 2 15 0.00000 11.85523 19.21846 6.11975
79 2 15 0.00000 11.46999 19.15770 4.33063
80 2 15 0.00000 11.09614 19.06647 2.56841
81 2 15 0.00000 10.73264 18.94270 0.84587
82 2 15 0.00000 10.38590 18.78400 -0.82009
83 2 15 0.00000 10.04069 18.58893 -2.42199
84 2 15 0.00000 9.69033 18.36344 -3.96936
85 2 15 0.00000 9.33136 18.12086 -5.47369
86 2 15 0.00000 8.99475 17.94287 -7.11863
87 2 16 0.00000 8.62203 17.65280 -8.52539
88 2 15 0.50000 17.72796 19.99171 22.35909
89 2 4 -0.70000 18.65146 20.85005 22.81209
90 2 12 0.80000 19.39816 21.56355 21.94674
91 2 1 -0.60000 20.19022 22.45572 22.29699
92 2 15 0.00000 19.22362 21.28175 20.55598
93 2 15 0.00000 18.97574 20.87312 19.11446
94 2 15 0.00000 18.74779 20.40694 17.68803
95 2 15 0.00000 18.54587 19.94615 16.25519
96 2 15 0.00000 18.32798 19.52988 14.80923
97 2 15 0.00000 18.05907 19.17100 13.35502
98 2 15 0.00000 17.73605 18.86839 11.89760
99 2 15 0.00000 17.38106 18.62244 10.43582
100 2 15 0.00000 17.01933 18.44286 8.96453
101 2 15 0.00000 16.66049 18.34203 7.48513
102 2 15 0.00000 16.28924 18.31949 6.00409
103 2 15 0.00000 15.87746 18.35932 4.53259
104 2 15 0.00000 15.40838 18.43285 3.07959
105 2 15 0.00000 14.89042 18.51459 1.64270
106 2 15 0.00000 14.34935 18.59541 0.21139
107 2 15 0.00000 13.90337 18.66986 -1.24718
108 2 16 0.00000 13.29031 18.75798 -2.65680
109 3 16 0.40000 16.92181 -15.18382 29.29855
110 3 16 0.40000 14.85539 -14.16361 28.73635
111 3 16 0.40000 16.49177 -14.56504 27.04270
112 3 8 -0.50000 15.88077 -15.10447 28.25924
113 3 15 0.30000 15.27600 -16.41929 28.02694
114 3 15 0.40000 14.50065 -17.69164 27.62716
115 3 3 -0.80000 13.74411 -18.54843 26.92344
116 3 30 1.70000 13.82933 -18.17881 25.30526
117 3 2 -0.80000 14.97584 -18.98791 24.75180
118 3 2 -0.80000 13.91640 -16.65880 25.28341
119 3 3 -0.70000 12.38921 -18.72819 24.70183
120 3 15 0.40000 11.96405 -18.29298 23.48176
121 3 14 0.30000 11.56609 -17.43887 22.35480
122 3 4 -0.70000 11.35615 -17.85419 20.93777
123 3 12 0.70000 10.05845 -17.81738 20.35176
124 3 1 -0.70000 9.04149 -17.79871 21.03973
125 3 15 0.00000 9.87971 -17.77185 18.78431
126 3 15 0.00000 9.37963 -17.66511 17.01980
127 3 15 0.00000 8.84528 -17.55166 15.25263
128 3 15 0.00000 8.33135 -17.45010 13.47024
129 3 15 0.00000 7.84908 -17.36913 11.67461
130 3 15 0.00000 7.39794 -17.31099 9.87006
131 3 15 0.00000 6.97535 -17.27723 8.06148
132 3 15 0.00000 6.58106 -17.26613 6.25622
133 3 15 0.00000 6.20871 -17.28088 4.46341
134 3 15 0.00000 5.85763 -17.32302 2.69466
135 3 15 0.00000 5.52773 -17.39605 0.96249
136 3 15 0.00000 5.22611 -17.50170 -0.71641
137 3 15 0.00000 4.93902 -17.64706 -2.33498
138 3 15 0.00000 4.65802 -17.82787 -3.90223
139 3 15 0.00000 4.37525 -18.03165 -5.42841
140 3 15 0.00000 4.08992 -18.15405 -7.08806
141 3 16 0.00000 3.81147 -18.41624 -8.52185
142 3 15 0.50000 12.12914 -16.13762 22.58866
143 3 4 -0.70000 12.72370 -15.06910 23.13598
144 3 12 0.80000 13.17803 -14.06995 22.35447
145 3 1 -0.60000 13.63572 -13.00342 22.80060
146 3 15 0.00000 13.08410 -14.26030 20.94059
147 3 15 0.00000 12.96211 -14.58917 19.46298
148 3 15 0.00000 12.87824 -14.96691 17.99524
149 3 15 0.00000 12.81702 -15.33038 16.52204
150 3 15 0.00000 12.72579 -15.65607 15.03977
151 3 15 0.00000 12.56730 -15.94399 13.55389
152 3 15 0.00000 12.33908 -16.19669 12.06929
153 3 15 0.00000 12.06187 -16.40636 10.58521
154 3 15 0.00000 11.75618 -16.55505 9.09785
155 3 15 0.00000 11.42702 -16.62808 7.60994
156 3 15 0.00000 11.06021 -16.63155 6.12762
157 3 15 0.00000 10.63467 -16.59079 4.66007
158 3 15 0.00000 10.14422 -16.53912 3.21320
159 3 15 0.00000 9.60519 -16.49744 1.78235
160 3 15 0.00000 9.04475 -16.46481 0.35660
161 3 15 0.00000 8.57570 -16.40409 -1.09536
162 3 16 0.00000 7.94527 -16.39049 -2.50000
163 4 16 0.40000 20.96489 -15.61995 29.09645
164 4 16 0.40000 21.75463 -13.86051 27.71526
165 4 16 0.40000 20.91466 -15.86908 26.73169
166 4 8 -0.50000 20.73223 -14.91257 27.82534
167 4 15 0.30000 19.39675 -14.30888 27.80257
168 4 15 0.40000 18.05222 -13.59047 27.56601
169 4 3 -0.80000 17.02062 -13.00135 26.94115
170 4 30 1.70000 16.91908 -13.55274 25.37652
171 4 2 -0.80000 16.00322 -14.75075 25.41444
172 4 2 -0.80000 18.37205 -13.74344 24.96301
173 4 3 -0.70000 16.20080 -12.30086 24.56612
174 4 15 0.40000 16.26728 -12.25761 23.20507
175 4 14 0.30000 16.76225 -12.24271 21.82206
176 4 4 -0.70000 15.96041 -12.40342 20.57476
177 4 12 0.70000 15.81134 -11.32238 19.65939
178 4 1 -0.70000 16.00896 -10.15902 19.99907
179 4 15 0.00000 15.40947 -11.58507 18.15592
180 4 15 0.00000 15.00596 -11.59781 16.36371
181 4 15 0.00000 14.60765 -11.57887 14.55753
182 4 15 0.00000 14.19393 -11.58291 12.74641
183 4 15 0.00000 13.75718 -11.61959 10.93773
184 4 15 0.00000 13.29644 -11.68706 9.13592
185 4 15 0.00000 12.81161 -11.78139 7.34519
186 4 15 0.00000 12.30640 -11.90045 5.57175
187 4 15 0.00000 11.78022 -12.03540 3.82304
188 4 15 0.00000 11.23488 -12.18232 2.11000
189 4 15 0.00000 10.67055 -12.33743 0.44505
190 4 15 0.00000 10.09041 -12.50285 -1.15399
191 4 15 0.00000 9.48943 -12.66296 -2.68255
192 4 15 0.00000 8.86904 -12.81245 -4.15249
193 4 15 0.00000 8.23821 -12.94741 -5.57886
194 4 15 0.00000 7.64767 -13.12204 -7.15099
195 4 16 0.00000 6.98698 -13.23185 -8.47518
196 4 15 0.50000 18.08454 -12.80505 21.83821
197 4 4 -0.70000 19.27267 -13.29591 22.21533
198 4 12 0.80000 20.01670 -14.01312 21.35075
199 4 1 -0.60000 21.17233 -14.40040 21.59675
200 4 15 0.00000 19.43322 -14.29921 20.07725
201 4 15 0.00000 18.69845 -14.56670 18.77534
202 4 15 0.00000 17.92015 -14.86477 17.50673
203 4 15 0.00000 17.15434 -15.18703 16.23557
204 4 15 0.00000 16.42175 -15.48552 14.93720
205 4 15 0.00000 15.72340 -15.72298 13.60613
206 4 15 0.00000 15.05818 -15.89558 12.24684
207 4 15 0.00000 14.43367 -16.02390 10.86234
208 4 15 0.00000 13.86631 -16.12987 9.45002
209 4 15 0.00000 13.37103 -16.21851 8.00974
210 4 15 0.00000 12.94349 -16.27414 6.54484
211 4 15 0.00000 12.56170 -16.27232 5.06474
212 4 15 0.00000 12.19528 -16.20328 3.58231
213 4 15 0.00000 11.82311 -16.08258 2.10361
214 4 15 0.00000 11.44339 -15.93934 0.62604
215 4 15 0.00000 11.08452 -15.89282 -0.85752
216 4 16 0.00000 10.69149 -15.67538 -2.33023
217 5 16 0.40000 11.44656 0.72294 28.79980
218 5 16 0.40000 11.68605 2.74109 27.57639
219 5 16 0.40000 11.44124 0.66379 26.42216
220 5 8 -0.50000 11.00698 1.43610 27.58802
221 5 15 0.30000 9.55471 1.63423 27.59873
222 5 15 0.40000 8.05854 1.95680 27.40566
223 5 3 -0.80000 6.89454 2.27671 26.81876
224 5 30 1.70000 6.93562 1.84893 25.21324
225 5 2 -0.80000 6.39939 0.44079 25.14230
226 5 2 -0.80000 8.37771 2.11434 24.80285
227 5 3 -0.70000 5.88098 2.90623 24.49929
228 5 15 0.40000 5.91620 3.07762 23.14720
229 5 14 0.30000 6.36994 3.34574 21.77601
230 5 4 -0.70000 5.63230 3.06576 20.51031
231 5 12 0.70000 5.17066 4.13056 19.68456
232 5 1 -0.70000 5.03281 5.27024 20.12044
233 5 15 0.00000 4.84238 3.88799 18.15999
234 5 15 0.00000 4.43793 3.90727 16.36805
235 5 15 0.00000 4.02926 3.95942 14.56484
236 5 15 0.00000 3.61231 3.98564 12.75465
237 5 15 0.00000 3.18260 3.97392 10.94395
238 5 15 0.00000 2.73876 3.92541 9.13730
239 5 15 0.00000 2.27961 3.84347 7.33921
240 5 15 0.00000 1.80817 3.73070 5.55608
241 5 15 0.00000 1.32144 3.59476 3.79606
242 5 15 0.00000 0.82019 3.43902 2.07037
243 5 15 0.00000 0.30364 3.26612 0.39172
244 5 15 0.00000 -0.22435 3.07349 -1.22227
245 5 15 0.00000 -0.77298 2.87424 -2.76584
246 5 15 0.00000 -1.34255 2.67482 -4.25035
247 5 15 0.00000 -1.92575 2.48275 -5.69039
248 5 15 0.00000 -2.46076 2.27616 -7.27844
249 5 16 0.00000 -3.07851 2.09126 -8.61493
250 5 15 0.50000 7.79772 3.18390 21.76192
251 5 4 -0.70000 9.08084 3.02264 22.11180
252 5 12 0.80000 9.98797 2.62012 21.20045
253 5 1 -0.60000 11.20888 2.55925 21.42773
254 5 15 0.00000 9.49502 2.28470 19.90099
255 5 15 0.00000 8.85142 1.92628 18.57294
256 5 15 0.00000 8.17521 1.52354 17.27506
257 5 15 0.00000 7.51781 1.10147 15.97281
258 5 15 0.00000 6.88518 0.71377 14.64578
259 5 15 0.00000 6.26759 0.39678 13.29155
260 5 15 0.00000 5.66295 0.15350 11.91488
261 5 15 0.00000 5.08442 -0.03386 10.51721
262 5 15 0.00000 4.55397 -0.18132 9.09430
263 5 15 0.00000 4.08735 -0.28941 7.64580
264 5 15 0.00000 3.67596 -0.34467 6.17627
265 5 15 0.00000 3.29189 -0.33080 4.69682
266 5 15 0.00000 2.90338 -0.24815 3.22073
267 5 15 0.00000 2.49468 -0.11810 1.75251
268 5 15 0.00000 2.07234 0.03123 0.28715
269 5 15 0.00000 1.69747 0.09460 -1.19181
270 5 16 0.00000 1.24130 0.31062 -2.64642
271 6 16 0.40000 -11.33283 -13.59295 29.67355
272 6 16 0.40000 -13.60021 -14.07397 29.16898
273 6 16 0.40000 -12.21620 -12.99540 27.54769
274 6 8 -0.50000 -12.24583 -14.01582 28.59753
275 6 15 0.30000 -11.86863 -15.33571 28.08365
276 6 15 0.40000 -11.65992 -16.70364 27.40171
277 6 3 -0.80000 -11.72729 -17.69597 26.50036
278 6 30 1.70000 -12.01422 -17.06706 24.98890
279 6 2 -0.80000 -10.65864 -16.81891 24.37549
280 6 2 -0.80000 -12.93466 -15.88386 25.25595
281 6 3 -0.70000 -12.79233 -18.29392 24.19564
282 6 15 0.40000 -13.48131 -18.02126 23.05122
283 6 14 0.30000 -14.41467 -17.43887 22.07778
284 6 4 -0.70000 -14.40291 -17.61839 20.59718
285 6 12 0.70000 -15.45163 -18.32322 19.93978
286 6 1 -0.70000 -16.18744 -19.09625 20.54712
287 6 15 0.00000 -15.72525 -18.11416 18.39954
288 6 15 0.00000 -16.29593 -18.03151 16.65527
289 6 15 0.00000 -16.89713 -17.96561 14.90726
290 6 15 0.00000 -17.47618 -17.89243 13.14355
291 6 15 0.00000 -18.01880 -17.81148 11.36522
292 6 15 0.00000 -18.52362 -17.72558 9.57606
293 6 15 0.00000 -18.99128 -17.63843 7.78041
294 6 15 0.00000 -19.42255 -17.55029 5.98576
295 6 15 0.00000 -19.81958 -17.46934 4.20002
296 6 15 0.00000 -20.18105 -17.39931 2.43425
297 6 15 0.00000 -20.50391 -17.34518 0.70006
298 6 15 0.00000 -20.78049 -17.30670 -0.98601
299 6 15 0.00000 -21.01614 -17.29936 -2.61933
300 6 15 0.00000 -21.22065 -17.32379 -4.20853
301 6 15 0.00000 -21.40877 -17.37395 -5.76185
302 6 15 0.00000 -21.66081 -17.34088 -7.43104
303 6 16 0.00000 -21.80140 -17.44856 -8.90436
304 6 15 0.50000 -14.81462 -16.15633 22.58778
305 6 4 -0.70000 -15.01815 -15.08351 23.36395
306 6 12 0.80000 -15.37512 -13.90590 22.81508
307 6 1 -0.60000 -15.68818 -12.90445 23.48221
308 6 15 0.00000 -15.42093 -13.84465 21.38740
309 6 15 0.00000 -15.40268 -13.89205 19.86957
310 6 15 0.00000 -15.32316 -13.95269 18.35498
311 6 15 0.00000 -15.23610 -13.98709 16.83926
312 6 15 0.00000 -15.19690 -14.01134 15.31959
313 6 15 0.00000 -15.23344 -14.05063 13.79875
314 6 15 0.00000 -15.34561 -14.10931 12.28086
315 6 15 0.00000 -15.52277 -14.16805 10.76810
316 6 15 0.00000 -15.76129 -14.19960 9.26147
317 6 15 0.00000 -16.06668 -14.19036 7.76675
318 6 15 0.00000 -16.44530 -14.15519 6.28782
319 6 15 0.00000 -16.89611 -14.12815 4.82751
320 6 15 0.00000 -17.40179 -14.13895 3.38501
321 6 15 0.00000 -17.93674 -14.19159 1.95299
322 6 15 0.00000 -18.48170 -14.26573 0.52280
323 6 15 0.00000 -18.97737 -14.25503 -0.92152
324 6 16 0.00000 -19.56163 -14.39251 -2.33941
325 7 16 0.40000 1.99415 19.34171 28.82775
326 7 16 0.40000 0.62249 21.12098 28.06634
327 7 16 0.40000 1.82701 19.78226 26.49652
328 7 8 -0.50000 1.07584 19.75690 27.75325
329 7 15 0.30000 -0.07862 18.85684 27.67857
330 7 15 0.40000 -1.36974 18.05097 27.42669
331 7 3 -0.80000 -2.46091 17.55941 26.81892
332 7 30 1.70000 -2.26712 17.62726 25.16961
333 7 2 -0.80000 -1.64785 16.31191 24.76733
334 7 2 -0.80000 -1.48351 18.91386 24.94803
335 7 3 -0.70000 -3.81656 17.73617 24.59753
336 7 15 0.40000 -4.03049 18.15203 23.31689
337 7 14 0.30000 -4.02236 18.93420 22.07348
338 7 4 -0.70000 -4.44826 18.47940 20.71838
339 7 12 0.70000 -5.59836 19.03728 20.09005
340 7 1 -0.70000 -6.46641 19.61865 20.73531
341 7 15 0.00000 -5.78718 18.95115 18.52549
342 7 15 0.00000 -6.23827 19.04181 16.74693
343 7 15 0.00000 -6.71664 19.15394 14.96370
344 7 15 0.00000 -7.18298 19.24413 13.16767
345 7 15 0.00000 -7.63133 19.29980 11.36232
346 7 15 0.00000 -8.06308 19.31981 9.55220
347 7 15 0.00000 -8.48105 19.30468 7.74230
348 7 15 0.00000 -8.88442 19.25698 5.93965
349 7 15 0.00000 -9.28000 19.17813 4.15349
350 7 15 0.00000 -9.66871 19.06861 2.39554
351 7 15 0.00000 -10.05187 18.92710 0.67864
352 7 15 0.00000 -10.42341 18.75099 -0.98021
353 7 15 0.00000 -10.79859 18.54141 -2.57352
354 7 15 0.00000 -11.18318 18.30483 -4.11108
355 7 15 0.00000 -11.57865 18.05446 -5.60494
356 7 15 0.00000 -11.94295 17.85868 -7.24194
357 7 16 0.00000 -12.35873 17.56752 -8.63635
358 7 15 0.50000 -2.91107 19.84201 22.15014
359 7 4 -0.70000 -1.86983 20.57335 22.56937
360 7 12 0.80000 -1.02891 21.13192 21.67701
361 7 1 -0.60000 -0.11301 21.91170 21.99175
362 7 15 0.00000 -1.24739 20.82041 20.29885
363 7 15 0.00000 -1.55725 20.39224 18.87510
364 7 15 0.00000 -1.85583 19.90490 17.46893
365 7 15 0.00000 -2.12790 19.41877 16.05620
366 7 15 0.00000 -2.40923 18.97845 14.62843
367 7 15 0.00000 -2.73261 18.60200 13.18984
368 7 15 0.00000 -3.10122 18.28899 11.74549
369 7 15 0.00000 -3.49314 18.03649 10.29430
370 7 15 0.00000 -3.88197 17.85017 8.83078
371 7 15 0.00000 -4.25637 17.74091 7.35585
372 7 15 0.00000 -4.63152 17.71077 5.87592
373 7 15 0.00000 -5.03755 17.74863 4.40277
374 7 15 0.00000 -5.49522 17.82901 2.94651
375 7 15 0.00000 -5.99999 17.92539 1.50583
376 7 15 0.00000 -6.52774 18.02449 0.07071
377 7 15 0.00000 -6.96245 18.10215 -1.39110
378 7 16 0.00000 -7.56026 18.21998 -2.80510
379 8 16 0.40000 -15.38359 21.02113 32.53935
380 8 16 0.40000 -15.89893 18.93608 31.53239
381 8 16 0.40000 -16.63965 20.96942 30.52035
382 8 8 -0.50000 -15.53820 20.33323 31.24586
383 8 15 0.30000 -14.28809 20.37464 30.48168
384 8 15 0.40000 -13.08832 20.29103 29.51555
385 8 3 -0.80000 -12.37343 20.13766 28.38989
386 8 30 1.70000 -13.32196 20.47773 27.06814
387 8 2 -0.80000 -13.14067 21.94947 26.79145
388 8 2 -0.80000 -14.69845 19.96248 27.46597
389 8 3 -0.70000 -12.64528 19.57389 25.85774
390 8 15 0.40000 -13.35814 19.33619 24.72016
391 8 14 0.30000 -14.41467 18.93420 23.78204
392 8 4 -0.70000 -14.51036 19.27109 22.33225
393 8 12 0.70000 -14.38627 18.25820 21.33855
394 8 1 -0.70000 -13.85654 17.17770 21.58301
395 8 15 0.00000 -14.95378 18.47956 19.88258
396 8 15 0.00000 -15.55577 18.44278 18.14728
397 8 15 0.00000 -16.15483 18.37375 16.39867
398 8 15 0.00000 -16.75487 18.33131 14.64097
399 8 15 0.00000 -17.35070 18.32830 12.87791
400 8 15 0.00000 -17.93858 18.36404 11.11256
401 8 15 0.00000 -18.51461 18.43562 9.34798
402 8 15 0.00000 -19.07753 18.54029 7.59108
403 8 15 0.00000 -19.61930 18.67135 5.84685
404 8 15 0.00000 -20.13410 18.82589 4.12505
405 8 15 0.00000 -20.61418 19.00201 2.43594
406 8 15 0.00000 -21.05390 19.20247 0.79664
407 8 15 0.00000 -21.44041 19.41609 -0.79342
408 8 15 0.00000 -21.77841 19.63603 -2.34433
409 8 15 0.00000 -22.08044 19.85303 -3.86499
410 8 15 0.00000 -22.50292 20.06959 -5.48531
411 8 16 0.00000 -22.72046 20.28996 -6.93656
412 8 15 0.50000 -15.64021 18.86086 24.52877
413 8 4 -0.70000 -16.55342 18.82744 25.50843
414 8 12 0.80000 -17.85555 19.03413 25.23059
415 8 1 -0.60000 -18.76501 18.90617 26.06873
416 8 15 0.00000 -18.18226 19.38428 23.88345
417 8 15 0.00000 -18.40201 19.78027 22.43387
418 8 15 0.00000 -18.58587 20.22665 20.99480
419 8 15 0.00000 -18.79087 20.68883 19.56284
420 8 15 0.00000 -19.02399 21.11194 18.12125
421 8 15 0.00000 -19.27248 21.46164 16.66118
422 8 15 0.00000 -19.53161 21.73555 15.18544
423 8 15 0.00000 -19.81448 21.94912 13.70298
424 8 15 0.00000 -20.14427 22.11436 12.22253
425 8 15 0.00000 -20.53440 22.22924 10.75211
426 8 15 0.00000 -20.97311 22.28207 9.29041
427 8 15 0.00000 -21.42859 22.26187 7.83144
428 8 15 0.00000 -21.86743 22.17477 6.36977
429 8 15 0.00000 -22.27756 22.04459 4.90196
430 8 15 0.00000 -22.67166 21.89776 3.42851
431 8 15 0.00000 -23.12651 21.82730 1.97248
432 8 16 0.00000 -23.47588 21.62075 0.48724
433 9 16 0.40000 -4.38953 5.65580 30.86968
434 9 16 0.40000 -3.97137 7.61219 29.59504
435 9 16 0.40000 -4.40288 5.53623 28.49434
436 9 8 -0.50000 -4.76476 6.37411 29.63945
437 9 15 0.30000 -6.19339 6.70193 29.64338
438 9 15 0.40000 -7.65481 7.15235 29.44034
439 9 3 -0.80000 -8.78610 7.56019 28.84407
440 9 30 1.70000 -8.78542 7.08929 27.25013
441 9 2 -0.80000 -9.44589 5.73357 27.21482
442 9 2 -0.80000 -7.32581 7.21362 26.83472
443 9 3 -0.70000 -9.74178 8.21822 26.50799
444 9 15 0.40000 -9.69289 8.35092 25.15199
445 9 14 0.30000 -9.21852 8.54190 23.77489
446 9 4 -0.70000 -9.97977 8.29675 22.51594
447 9 12 0.70000 -10.34498 9.37708 21.66255
448 9 1 -0.70000 -10.37953 10.53536 22.06881
449 9 15 0.00000 -10.69545 9.12580 20.14434
450 9 15 0.00000 -11.09862 9.13517 18.35204
451 9 15 0.00000 -11.50304 9.17737 16.54761
452 9 15 0.00000 -11.91806 9.19432 14.73686
453 9 15 0.00000 -12.34917 9.17462 12.92657
454 9 15 0.00000 -12.79766 9.11967 11.12125
455 9 15 0.00000 -13.26440 9.03302 9.32533
456 9 15 0.00000 -13.74612 8.91717 7.54515
457 9 15 0.00000 -14.24511 8.78021 5.78865
458 9 15 0.00000 -14.76030 8.62572 4.06696
459 9 15 0.00000 -15.29222 8.45674 2.39272
460 9 15 0.00000 -15.83723 8.27080 0.78361
461 9 15 0.00000 -16.40331 8.08193 -0.75496
462 9 15 0.00000 -16.99019 7.89629 -2.23451
463 9 15 0.00000 -17.58993 7.72033 -3.66980
464 9 15 0.00000 -18.14315 7.52179 -5.25263
465 9 16 0.00000 -18.77655 7.35874 -6.58464
466 9 15 0.50000 -7.81103 8.25231 23.76661
467 9 4 -0.70000 -6.54715 7.98565 24.12200
468 9 12 0.80000 -5.68083 7.48007 23.22236
469 9 1 -0.60000 -4.47004 7.31578 23.45254
470 9 15 0.00000 -6.20339 7.15691 21.93139
471 9 15 0.00000 -6.87808 6.82363 20.61226
472 9 15 0.00000 -7.58920 6.44992 19.32438
473 9 15 0.00000 -8.28331 6.05516 18.03266
474 9 15 0.00000 -8.94971 5.69178 16.71532
475 9 15 0.00000 -9.59481 5.39674 15.36898
476 9 15 0.00000 -10.22043 5.17334 13.99832
477 9 15 0.00000 -10.81505 5.00275 12.60526
478 9 15 0.00000 -11.35823 4.86692 11.18600
479 9 15 0.00000 -11.83434 4.76390 9.74023
480 9 15 0.00000 -12.25073 4.70798 8.27213
481 9 15 0.00000 -12.63372 4.71819 6.79237
482 9 15 0.00000 -13.01496 4.79736 5.31419
483 9 15 0.00000 -13.41204 4.92574 3.84264
484 9 15 0.00000 -13.82097 5.07461 2.37344
485 9 15 0.00000 -14.19036 5.13329 0.89290
486 9 16 0.00000 -14.62699 5.35187 -0.56731
487 10 16 0.40000 -19.04808 -3.51429 32.11809
488 10 16 0.40000 -20.58434 -5.17466 31.40387
489 10 16 0.40000 -20.23710 -3.21665 30.07987
490 10 8 -0.50000 -19.57954 -4.20894 30.93265
491 10 15 0.30000 -18.51061 -4.91504 30.22043
492 10 15 0.40000 -17.55614 -5.73138 29.32464
493 10 3 -0.80000 -17.06136 -6.38551 28.26209
494 10 30 1.70000 -17.75996 -5.80869 26.86868
495 10 2 -0.80000 -16.87191 -4.68752 26.38933
496 10 2 -0.80000 -19.19143 -5.49513 27.28227
497 10 3 -0.70000 -17.68015 -7.09456 25.82942
498 10 15 0.40000 -18.45977 -7.10178 24.71099
499 10 14 0.30000 -19.61082 -7.04656 23.79997
500 10 4 -0.70000 -19.58054 -6.92130 22.31406
501 10 12 0.70000 -20.02379 -7.98981 21.48304
502 10 1 -0.70000 -20.10248 -9.14140 21.90196
503 10 15 0.00000 -20.45897 -7.72570 19.98912
504 10 15 0.00000 -21.06516 -7.70433 18.25504
505 10 15 0.00000 -21.68562 -7.71381 16.51256
506 10 15 0.00000 -22.29387 -7.70148 14.75721
507 10 15 0.00000 -22.87880 -7.65849 12.99102
508 10 15 0.00000 -23.43741 -7.58685 11.21729
509 10 15 0.00000 -23.96770 -7.49059 9.43959
510 10 15 0.00000 -24.46967 -7.37166 7.66521
511 10 15 0.00000 -24.93958 -7.23911 5.90037
512 10 15 0.00000 -25.37351 -7.09693 4.15538
513 10 15 0.00000 -25.76530 -6.94918 2.44096
514 10 15 0.00000 -26.10805 -6.79387 0.77385
515 10 15 0.00000 -26.39632 -6.64707 -0.84438
516 10 15 0.00000 -26.63802 -6.51372 -2.42290
517 10 15 0.00000 -26.84898 -6.39664 -3.96967
518 10 15 0.00000 -27.16799 -6.23358 -5.61966
519 10 16 0.00000 -27.30165 -6.14621 -7.09497
520 10 15 0.50000 -20.67537 -6.38256 24.50053
521 10 4 -0.70000 -21.44120 -5.80847 25.43794
522 10 12 0.80000 -22.47090 -5.01572 25.08197
523 10 1 -0.60000 -23.28679 -4.54446 25.89329
524 10 15 0.00000 -22.62912 -4.74774 23.68653
525 10 15 0.00000 -22.67601 -4.50955 22.18738
526 10 15 0.00000 -22.66610 -4.24505 20.69275
527 10 15 0.00000 -22.66618 -3.95541 19.20202
528 10 15 0.00000 -22.71060 -3.68623 17.70632
529 10 15 0.00000 -22.80604 -3.47444 16.20237
530 10 15 0.00000 -22.94951 -3.32408 14.69346
531 10 15 0.00000 -23.14418 -3.21406 13.18571
532 10 15 0.00000 -23.40363 -3.12121 11.68510
533 10 15 0.00000 -23.74013 -3.03933 10.19929
534 10 15 0.00000 -24.14948 -2.98448 8.72917
535 10 15 0.00000 -24.61005 -2.98294 7.27166
536 10 15 0.00000 -25.09013 -3.04713 5.82183
537 10 15 0.00000 -25.56742 -3.16336 4.37327
538 10 15 0.00000 -26.03951 -3.30267 2.92218
539 10 15 0.00000 -26.52479 -3.34380 1.47488
540 10 16 0.00000 -26.98890 -3.55822 0.02254
541 11 16 0.40000 11.24198 -4.20282 29.69536
542 11 16 0.40000 9.01783 -3.56027 29.17840
543 11 16 0.40000 10.69181 -3.55524 27.47396
544 11 8 -0.50000 10.19928 -4.26461 28.65653
545 11 15 0.30000 9.85114 -5.65519 28.35064
546 11 15 0.40000 9.32663 -7.02714 27.87894
547 11 3 -0.80000 8.74096 -7.97164 27.12621
548 11 30 1.70000 8.74695 -7.50595 25.53076
549 11 2 -0.80000 10.02222 -8.05420 24.94038
550 11 2 -0.80000 8.54675 -5.99773 25.59128
551 11 3 -0.70000 7.43263 -8.28281 24.89126
552 11 15 0.40000 6.92705 -7.87014 23.69425
553 11 14 0.30000 6.36994 -7.04656 22.61292
554 11 4 -0.70000 6.23453 -7.41698 21.17452
555 11 12 0.70000 4.95005 -7.59314 20.58472
556 11 1 -0.70000 3.95123 -7.80297 21.26749
557 11 15 0.00000 4.75794 -7.49761 19.02111
558 11 15 0.00000 4.23769 -7.39183 17.26238
559 11 15 0.00000 3.68251 -7.28575 15.50118
560 11 15 0.00000 3.14955 -7.18669 13.72425
561 11 15 0.00000 2.65149 -7.10115 11.93315
562 11 15 0.00000 2.18825 -7.03168 10.13206
563 11 15 0.00000 1.75760 -6.98053 8.32579
564 11 15 0.00000 1.35903 -6.94646 6.52177
565 11 15 0.00000 0.98692 -6.93430 4.72888
566 11 15 0.00000 0.64098 -6.94629 2.95866
567 11 15 0.00000 0.32182 -6.98658 1.22341
568 11 15 0.00000 0.03685 -7.05640 -0.46026
569 11 15 0.00000 -0.22608 -7.16570 -2.08576
570 11 15 0.00000 -0.47611 -7.31138 -3.66190
571 11 15 0.00000 -0.72335 -7.48213 -5.19826
572 11 15 0.00000 -0.98908 -7.56637 -6.86353
573 11 16 0.00000 -1.22063 -7.79857 -8.31077
574 11 15 0.50000 6.67965 -5.67722 22.91942
575 11 4 -0.70000 7.06564 -4.54708 23.52655
576 11 12 0.80000 7.32015 -3.43974 22.80234
577 11 1 -0.60000 7.57157 -2.33183 23.30762
578 11 15 0.00000 7.25643 -3.56789 21.37980
579 11 15 0.00000 7.19086 -3.83373 19.88601
580 11 15 0.00000 7.17195 -4.14087 18.39964
581 11 15 0.00000 7.17259 -4.42945 16.90871
582 11 15 0.00000 7.13661 -4.68614 15.41059
583 11 15 0.00000 7.02744 -4.91823 13.91057
584 11 15 0.00000 6.84318 -5.12895 12.41336
585 11 15 0.00000 6.60273 -5.30671 10.91874
586 11 15 0.00000 6.32282 -5.42983 9.42399
587 11 15 0.00000 6.00564 -5.48313 7.93264
588 11 15 0.00000 5.63845 -5.47560 6.45044
589 11 15 0.00000 5.20533 -5.43651 4.98505
590 11 15 0.00000 4.70653 -5.40004 3.54059
591 11 15 0.00000 4.16196 -5.38335 2.11132
592 11 15 0.00000 3.59809 -5.37983 0.68655
593 11 15 0.00000 3.11857 -5.33019 -0.76240
594 11 16 0.00000 2.48964 -5.35963 -2.16748
595 12 16 0.40000 -1.21007 -16.14139 29.32093
596 12 16 0.40000 0.14323 -14.95168 27.77814
597 12 16 0.40000 -1.39600 -16.60242 26.99508
598 12 8 -0.50000 -1.19192 -15.53627 27.97790
599 12 15 0.30000 -2.21209 -14.48989 27.86471
600 12 15 0.40000 -3.20281 -13.35672 27.52670
601 12 3 -0.80000 -3.95793 -12.49900 26.82256
602 12 30 1.70000 -4.28658 -13.13608 25.32306
603 12 2 -0.80000 -5.57777 -13.90229 25.46860
604 12 2 -0.80000 -3.01412 -13.89006 24.96131
605 12 3 -0.70000 -4.51047 -11.80074 24.37088
606 12 15 0.40000 -4.46017 -11.92870 23.01448
607 12 14 0.30000 -4.02236 -12.24271 21.64786
608 12 4 -0.70000 -4.85208 -12.22790 20.40855
609 12 12 0.70000 -4.61167 -11.27074 19.38150
610 12 1 -0.70000 -3.99339 -10.23267 19.60056
611 12 15 0.00000 -5.11218 -11.52421 17.90631
612 12 15 0.00000 -5.52812 -11.57657 16.11767
613 12 15 0.00000 -5.92787 -11.60305 14.31191
614 12 15 0.00000 -6.35050 -11.64560 12.50334
615 12 15 0.00000 -6.80649 -11.70960 10.70017
616 12 15 0.00000 -7.29595 -11.79250 8.90661
617 12 15 0.00000 -7.81748 -11.89019 7.12640
618 12 15 0.00000 -8.36670 -12.00142 5.36557
619 12 15 0.00000 -8.94076 -12.11701 3.63059
620 12 15 0.00000 -9.53631 -12.23286 1.93195
621 12 15 0.00000 -10.15155 -12.34422 0.28160
622 12 15 0.00000 -10.78397 -12.45235 -1.30245
623 12 15 0.00000 -11.43239 -12.54048 -2.81740
624 12 15 0.00000 -12.09376 -12.60548 -4.27559
625 12 15 0.00000 -12.75863 -12.64863 -5.69221
626 12 15 0.00000 -13.40355 -12.75860 -7.24874
627 12 16 0.00000 -14.08487 -12.75676 -8.56701
628 12 15 0.50000 -2.99938 -13.24674 21.74984
629 12 4 -0.70000 -2.06759 -14.09734 22.20046
630 12 12 0.80000 -1.65693 -15.12470 21.43147
631 12 1 -0.60000 -0.71991 -15.88147 21.74016
632 12 15 0.00000 -2.33026 -15.30877 20.18373
633 12 15 0.00000 -3.13798 -15.42304 18.90275
634 12 15 0.00000 -3.99674 -15.54605 17.65720
635 12 15 0.00000 -4.85283 -15.69626 16.41194
636 12 15 0.00000 -5.66985 -15.83960 15.13778
637 12 15 0.00000 -6.43326 -15.94258 13.82536
638 12 15 0.00000 -7.14258 -16.00079 12.47871
639 12 15 0.00000 -7.79828 -16.03571 11.10316
640 12 15 0.00000 -8.39320 -16.07392 9.69873
641 12 15 0.00000 -8.91528 -16.12557 8.26615
642 12 15 0.00000 -9.36275 -16.17421 6.80696
643 12 15 0.00000 -9.74686 -16.18820 5.32752
644 12 15 0.00000 -10.09202 -16.14599 3.83900
645 12 15 0.00000 -10.42346 -16.05351 2.34862
646 12 15 0.00000 -10.75361 -15.93733 0.85683
647 12 15 0.00000 -11.10005 -15.91881 -0.63028
648 12 16 0.00000 -11.41519 -15.72866 -2.12534
649 13 16 0.40000 -14.15712 -14.34402 29.70389
650 13 16 0.40000 -14.24507 -12.25993 28.57438
651 13 16 0.40000 -14.16162 -14.29511 27.32601
652 13 8 -0.50000 -14.70860 -13.65524 28.52420
653 13 15 0.30000 -16.17387 -13.69057 28.53864
654 13 15 0.40000 -17.70294 -13.60085 28.35500