created with groupy

12114 atoms
9426 bonds
7176 angles
3916 dihedrals
174 impropers

58 atom types
54 bond types
55 angle types
43 dihedral types
3 improper types

-18.761663 18.761663 xlo xhi
-18.761663 18.761663 ylo yhi
-59.788703 59.788703 zlo zhi

Masses

1 15.9994
2 15.9994
3 15.9994
4 15.9994
5 15.9994
6 14.0067
7 14.0067
8 14.0067
9 14.0067
10 14.0067
11 14.0067
12 12.0110
13 12.0110
14 13.0190
15 14.0270
16 15.0350
17 16.0430
18 14.0270
19 13.0190
20 1.0080
21 1.0080
22 999.0   # dummy, this type not in this system
23 32.0600
24 63.5460
25 63.5460
26 55.8470
27 65.3700
28 24.3050
29 40.0800
30 30.9738
31 39.9480
32 18.9984
33 35.4350
34 79.9040
35 15.0350
36 15.9994
37 22.9898
38 35.4350
39 12.0110
40 35.4350
41 1.0080
42 32.0600
43 15.0350
44 15.9994
45 12.0110
46 35.4350
47 18.9984
48 12.0110
49 14.0270
50 15.9994
51 12.0110
52 15.9994
53 14.0067
54 28.0800
55 999.0   # dummy, this type not in this system
56 999.0   # dummy, this type not in this system
57 15.9994
58 1.0080

Atoms

1 1 16 0.40000 18.54166 -13.09651 31.80011
2 1 16 0.40000 16.54325 -12.26784 30.82715
3 1 16 0.40000 18.52618 -12.45974 29.50861
4 1 8 -0.50000 17.73510 -13.09021 30.56737
5 1 15 0.30000 17.32791 -14.45082 30.20490
6 1 15 0.40000 16.78498 -15.78116 29.64340
7 1 3 -0.80000 16.28096 -16.68775 28.79148
8 1 30 1.70000 16.66053 -16.26635 27.22920
9 1 2 -0.80000 17.97266 -16.94366 26.92092
10 1 2 -0.80000 16.59557 -14.74510 27.23675
11 1 3 -0.70000 15.43938 -16.93675 26.33521
12 1 15 0.40000 15.23340 -16.51116 25.05646
13 1 14 0.30000 14.99217 -15.66879 23.87741
14 1 4 -0.70000 15.12258 -16.06276 22.44483
15 1 12 0.70000 13.97697 -16.13658 21.60169
16 1 1 -0.70000 12.84333 -16.23671 22.06289
17 1 15 0.00000 14.12206 -16.06482 20.03174
18 1 15 0.00000 13.98891 -15.95806 18.20258
19 1 15 0.00000 13.82228 -15.84789 16.36372
20 1 15 0.00000 13.67986 -15.74714 14.51415
21 1 15 0.00000 13.57309 -15.66340 12.65807
22 1 15 0.00000 13.50077 -15.59908 10.79959
23 1 15 0.00000 13.45954 -15.55611 8.94295
24 1 15 0.00000 13.44746 -15.53300 7.09529
25 1 15 0.00000 13.45678 -15.53382 5.26418
26 1 15 0.00000 13.48462 -15.56048 3.46084
27 1 15 0.00000 13.52864 -15.61683 1.69748
28 1 15 0.00000 13.59250 -15.70435 -0.00813
29 1 15 0.00000 13.66208 -15.83166 -1.65199
30 1 15 0.00000 13.73057 -15.99507 -3.24465
31 1 15 0.00000 13.79120 -16.18265 -4.79766
32 1 15 0.00000 13.86863 -16.28579 -6.48116
33 1 16 0.00000 13.92031 -16.53365 -7.94333
34 1 15 0.50000 15.35981 -14.32580 24.23263
35 1 4 -0.70000 15.71700 -13.22004 24.89934
36 1 12 0.80000 16.21915 -12.15975 24.23670
37 1 1 -0.60000 16.46424 -11.06651 24.77592
38 1 15 0.00000 16.43900 -12.31866 22.83294
39 1 15 0.00000 16.65876 -12.61633 21.36003
40 1 15 0.00000 16.91852 -12.95917 19.90436
41 1 15 0.00000 17.20001 -13.28544 18.44818
42 1 15 0.00000 17.45035 -13.57680 16.97713
43 1 15 0.00000 17.63212 -13.83708 15.48883
44 1 15 0.00000 17.74221 -14.06916 13.98749
45 1 15 0.00000 17.80015 -14.26325 12.47677
46 1 15 0.00000 17.82487 -14.39936 10.95734
47 1 15 0.00000 17.81917 -14.46247 9.43303
48 1 15 0.00000 17.76863 -14.46024 7.90683
49 1 15 0.00000 17.65340 -14.42015 6.38316
50 1 15 0.00000 17.46963 -14.37613 4.86629
51 1 15 0.00000 17.23628 -14.34725 3.35488
52 1 15 0.00000 16.98196 -14.32961 1.84394
53 1 15 0.00000 16.81914 -14.27436 0.32660
54 1 16 0.00000 16.49428 -14.28309 -1.17840
55 2 16 0.40000 19.36445 18.16764 30.10585
56 2 16 0.40000 17.92221 19.75605 29.09399
57 2 16 0.40000 19.61265 18.67682 27.79591
58 2 8 -0.50000 18.63307 18.48806 28.86785
59 2 15 0.30000 17.66974 17.43176 28.54426
60 2 15 0.40000 16.59616 16.45591 28.01988
61 2 3 -0.80000 15.74070 15.83512 27.19254
62 2 30 1.70000 16.25525 16.00035 25.62081
63 2 2 -0.80000 17.13733 14.80872 25.34260
64 2 2 -0.80000 16.86159 17.39652 25.58142
65 2 3 -0.70000 14.85765 15.90396 24.73916
66 2 15 0.40000 14.84936 16.33748 23.44659
67 2 14 0.30000 14.99217 17.16412 22.24069
68 2 4 -0.70000 14.92725 16.70919 20.82176
69 2 12 0.70000 13.85863 17.11765 19.97324
70 2 1 -0.70000 12.79847 17.53708 20.42930
71 2 15 0.00000 14.00946 17.07079 18.40289
72 2 15 0.00000 13.92348 17.16906 16.57042
73 2 15 0.00000 13.80881 17.28472 14.72793
74 2 15 0.00000 13.71174 17.38101 12.87519
75 2 15 0.00000 13.63925 17.44623 11.01672
76 2 15 0.00000 13.58924 17.47886 9.15668
77 2 15 0.00000 13.55787 17.47878 7.29934
78 2 15 0.00000 13.54411 17.44838 5.45180
79 2 15 0.00000 13.53927 17.38762 3.62168
80 2 15 0.00000 13.53998 17.29639 1.82024
81 2 15 0.00000 13.54255 17.17262 0.05978
82 2 15 0.00000 13.54976 17.01392 -1.64187
83 2 15 0.00000 13.54515 16.81885 -3.28054
84 2 15 0.00000 13.52416 16.59336 -4.86694
85 2 15 0.00000 13.48581 16.35079 -6.41303
86 2 15 0.00000 13.49856 16.17280 -8.09201
87 2 16 0.00000 13.42646 15.88272 -9.54552
88 2 15 0.50000 15.91216 18.22163 22.55728
89 2 4 -0.70000 16.72130 19.07997 23.19239
90 2 12 0.80000 17.63159 19.79348 22.50121
91 2 1 -0.60000 18.33352 20.68564 23.00848
92 2 15 0.00000 17.75003 19.51167 21.10454
93 2 15 0.00000 17.80727 19.10304 19.64299
94 2 15 0.00000 17.88088 18.63686 18.20034
95 2 15 0.00000 17.98127 18.17607 16.75682
96 2 15 0.00000 18.06878 17.75981 15.29716
97 2 15 0.00000 18.10808 17.40092 13.81882
98 2 15 0.00000 18.09514 17.09832 12.32608
99 2 15 0.00000 18.05183 16.85236 10.82244
100 2 15 0.00000 18.00390 16.67278 9.30810
101 2 15 0.00000 17.96049 16.57196 7.78642
102 2 15 0.00000 17.90528 16.54941 6.26055
103 2 15 0.00000 17.80843 16.58925 4.73559
104 2 15 0.00000 17.65171 16.66277 3.21683
105 2 15 0.00000 17.44381 16.74451 1.70364
106 2 15 0.00000 17.21215 16.82533 0.19112
107 2 15 0.00000 17.07917 16.89978 -1.32831
108 2 16 0.00000 16.77258 16.98790 -2.83459
109 3 16 0.40000 14.09675 -13.41374 30.26033
110 3 16 0.40000 12.19237 -12.39353 29.28078
111 3 16 0.40000 14.14512 -12.79496 27.96436
112 3 8 -0.50000 13.29454 -13.33439 29.02728
113 3 15 0.30000 12.75129 -14.64921 28.67432
114 3 15 0.40000 12.07600 -15.92156 28.12208
115 3 3 -0.80000 11.48230 -16.77835 27.27643
116 3 30 1.70000 11.90210 -16.40873 25.71134
117 3 2 -0.80000 13.13863 -17.21783 25.40834
118 3 2 -0.80000 11.99180 -14.88872 25.70807
119 3 3 -0.70000 10.61890 -16.95811 24.82168
120 3 15 0.40000 10.45671 -16.52290 23.53987
121 3 14 0.30000 10.30175 -15.66879 22.35480
122 3 4 -0.70000 10.39101 -16.08412 20.92509
123 3 12 0.70000 9.24351 -16.04731 20.08208
124 3 1 -0.70000 8.10574 -16.02863 20.54357
125 3 15 0.00000 9.39457 -16.00177 18.51172
126 3 15 0.00000 9.27227 -15.89504 16.68179
127 3 15 0.00000 9.11701 -15.78158 14.84214
128 3 15 0.00000 8.98489 -15.68002 12.99185
129 3 15 0.00000 8.88650 -15.59905 11.13519
130 3 15 0.00000 8.82041 -15.54092 9.27627
131 3 15 0.00000 8.78307 -15.50715 7.41935
132 3 15 0.00000 8.77274 -15.49605 5.57157
133 3 15 0.00000 8.78127 -15.51080 3.74052
134 3 15 0.00000 8.80561 -15.55294 1.93743
135 3 15 0.00000 8.84305 -15.62597 0.17452
136 3 15 0.00000 8.89708 -15.73162 -1.53040
137 3 15 0.00000 8.95279 -15.87699 -3.17329
138 3 15 0.00000 9.00378 -16.05780 -4.76472
139 3 15 0.00000 9.04450 -16.26157 -6.31634
140 3 15 0.00000 9.11047 -16.38397 -7.99905
141 3 16 0.00000 9.13620 -16.64616 -9.45940
142 3 15 0.50000 10.80387 -14.36754 22.70061
143 3 4 -0.70000 11.27164 -13.29902 23.35959
144 3 12 0.80000 11.87853 -12.29987 22.68962
145 3 1 -0.60000 12.23346 -11.23334 23.22116
146 3 15 0.00000 12.08061 -12.49022 21.28711
147 3 15 0.00000 12.26851 -12.81909 19.81642
148 3 15 0.00000 12.49162 -13.19684 18.36331
149 3 15 0.00000 12.73804 -13.56030 16.90958
150 3 15 0.00000 12.95699 -13.88599 15.44073
151 3 15 0.00000 13.11089 -14.17391 13.95438
152 3 15 0.00000 13.19632 -14.42661 12.45476
153 3 15 0.00000 13.23373 -14.63629 10.94548
154 3 15 0.00000 13.24396 -14.78498 9.42707
155 3 15 0.00000 13.23134 -14.85800 7.90323
156 3 15 0.00000 13.18074 -14.86148 6.37705
157 3 15 0.00000 13.06962 -14.82072 4.85309
158 3 15 0.00000 12.89071 -14.76905 3.33587
159 3 15 0.00000 12.66095 -14.72736 1.82421
160 3 15 0.00000 12.40919 -14.69473 0.31310
161 3 15 0.00000 12.25227 -14.63401 -1.20466
162 3 16 0.00000 11.92765 -14.62042 -2.70968
163 4 16 0.40000 17.59054 -14.35560 29.81127
164 4 16 0.40000 18.65019 -12.59617 28.62446
165 4 16 0.40000 18.03308 -14.60474 27.48774
166 4 8 -0.50000 17.62725 -13.64823 28.51956
167 4 15 0.30000 16.32569 -13.04454 28.21962
168 4 15 0.40000 15.05971 -12.32613 27.70869
169 4 3 -0.80000 14.18058 -11.73701 26.88300
170 4 30 1.70000 14.40656 -12.28840 25.33146
171 4 2 -0.80000 13.50283 -13.48641 25.17812
172 4 2 -0.80000 15.91375 -12.47910 25.22907
173 4 3 -0.70000 13.87246 -11.03652 24.38942
174 4 15 0.40000 14.22047 -10.99327 23.07193
175 4 14 0.30000 14.99217 -10.97837 21.82206
176 4 4 -0.70000 14.46718 -11.13908 20.43530
177 4 12 0.70000 14.51169 -10.05804 19.50894
178 4 1 -0.70000 14.63436 -8.89467 19.88229
179 4 15 0.00000 14.43118 -10.32073 17.95477
180 4 15 0.00000 14.40912 -10.33347 16.11784
181 4 15 0.00000 14.39504 -10.31453 14.26831
182 4 15 0.00000 14.36691 -10.31856 12.41075
183 4 15 0.00000 14.31574 -10.35525 10.55079
184 4 15 0.00000 14.23970 -10.42271 8.69257
185 4 15 0.00000 14.13778 -10.51704 6.84016
186 4 15 0.00000 14.01232 -10.63611 5.00043
187 4 15 0.00000 13.86122 -10.77106 3.18054
188 4 15 0.00000 13.68396 -10.91798 1.39155
189 4 15 0.00000 13.47812 -11.07308 -0.35435
190 4 15 0.00000 13.24312 -11.23850 -2.03906
191 4 15 0.00000 12.97307 -11.39862 -3.65917
192 4 15 0.00000 12.67186 -11.54810 -5.22597
193 4 15 0.00000 12.35137 -11.68307 -6.75233
194 4 15 0.00000 12.10060 -11.85770 -8.41289
195 4 16 0.00000 11.72967 -11.96750 -9.84550
196 4 15 0.50000 16.28221 -11.54071 22.11278
197 4 4 -0.70000 17.36597 -12.03157 22.72868
198 4 12 0.80000 18.27350 -12.74878 22.03769
199 4 1 -0.60000 19.35273 -13.13606 22.51858
200 4 15 0.00000 17.96754 -13.03487 20.67070
201 4 15 0.00000 17.51951 -13.30236 19.24448
202 4 15 0.00000 17.02198 -13.60043 17.84177
203 4 15 0.00000 16.53719 -13.92269 16.43917
204 4 15 0.00000 16.09056 -14.22118 15.01686
205 4 15 0.00000 15.68421 -14.45864 13.56968
206 4 15 0.00000 15.31614 -14.63123 12.10178
207 4 15 0.00000 14.99313 -14.75956 10.61770
208 4 15 0.00000 14.73181 -14.86553 9.11828
209 4 15 0.00000 14.54680 -14.95417 7.60650
210 4 15 0.00000 14.43317 -15.00980 6.08472
211 4 15 0.00000 14.36746 -15.00798 4.55758
212 4 15 0.00000 14.31726 -14.93894 3.03136
213 4 15 0.00000 14.26066 -14.81823 1.50760
214 4 15 0.00000 14.19644 -14.67499 -0.01663
215 4 15 0.00000 14.15386 -14.62848 -1.54238
216 4 16 0.00000 14.07562 -14.41104 -3.06463
217 5 16 0.40000 9.11669 0.47007 29.70180
218 5 16 0.40000 9.60531 2.48822 28.55492
219 5 16 0.40000 9.60583 0.41092 27.37501
220 5 8 -0.50000 8.93867 1.18323 28.42511
221 5 15 0.30000 7.51590 1.38136 28.13365
222 5 15 0.40000 6.09257 1.70393 27.63371
223 5 3 -0.80000 5.07603 2.02385 26.81764
224 5 30 1.70000 5.45002 1.59606 25.25574
225 5 2 -0.80000 4.94025 0.18792 25.07486
226 5 2 -0.80000 6.94592 1.86147 25.15415
227 5 3 -0.70000 4.56686 2.65336 24.33811
228 5 15 0.40000 4.88242 2.82475 23.02290
229 5 14 0.30000 5.61134 3.09287 21.77601
230 5 4 -0.70000 5.15297 2.81289 20.38460
231 5 12 0.70000 4.87310 3.87770 19.48092
232 5 1 -0.70000 4.64764 5.01737 19.87862
233 5 15 0.00000 4.86897 3.63513 17.92141
234 5 15 0.00000 4.84592 3.65440 16.08454
235 5 15 0.00000 4.82109 3.70655 14.23577
236 5 15 0.00000 4.78961 3.73277 12.37844
237 5 15 0.00000 4.74576 3.72105 10.51797
238 5 15 0.00000 4.68725 3.67254 8.65852
239 5 15 0.00000 4.61197 3.59060 6.80426
240 5 15 0.00000 4.52156 3.47783 4.96208
241 5 15 0.00000 4.41140 3.34189 3.13932
242 5 15 0.00000 4.27990 3.18615 1.34713
243 5 15 0.00000 4.12364 3.01326 -0.40223
244 5 15 0.00000 3.94276 2.82062 -2.09073
245 5 15 0.00000 3.72704 2.62137 -3.71464
246 5 15 0.00000 3.47857 2.42195 -5.28513
247 5 15 0.00000 3.20752 2.22988 -6.81495
248 5 15 0.00000 3.01437 2.02329 -8.47953
249 5 16 0.00000 2.68799 1.83840 -9.91526
250 5 15 0.50000 7.01085 2.93103 22.05908
251 5 4 -0.70000 8.19318 2.76977 22.66809
252 5 12 0.80000 9.26997 2.36725 21.96526
253 5 1 -0.60000 10.41695 2.30638 22.44141
254 5 15 0.00000 9.05796 2.03184 20.59171
255 5 15 0.00000 8.70455 1.67341 19.15887
256 5 15 0.00000 8.31295 1.27067 17.74875
257 5 15 0.00000 7.94068 0.84860 16.33828
258 5 15 0.00000 7.59777 0.46090 14.90872
259 5 15 0.00000 7.27524 0.14391 13.45568
260 5 15 0.00000 6.97004 -0.09937 11.98338
261 5 15 0.00000 6.69474 -0.28673 10.49596
262 5 15 0.00000 6.47173 -0.43418 8.99386
263 5 15 0.00000 6.31646 -0.54228 7.48000
264 5 15 0.00000 6.21960 -0.59754 5.95705
265 5 15 0.00000 6.15151 -0.58367 4.43008
266 5 15 0.00000 6.07839 -0.50102 2.90547
267 5 15 0.00000 5.98388 -0.37097 1.38435
268 5 15 0.00000 5.87543 -0.22164 -0.13679
269 5 15 0.00000 5.81624 -0.15827 -1.66137
270 5 16 0.00000 5.67248 0.05775 -3.17904
271 6 16 0.40000 -11.71508 -11.82287 30.14832
272 6 16 0.40000 -13.82801 -12.30390 29.18336
273 6 16 0.40000 -12.13716 -11.22533 27.88525
274 6 8 -0.50000 -12.38442 -12.24574 28.90598
275 6 15 0.30000 -11.90862 -13.56563 28.48176
276 6 15 0.40000 -11.56269 -14.93356 27.85811
277 6 3 -0.80000 -11.44118 -15.92589 26.96245
278 6 30 1.70000 -11.40759 -15.29698 25.42436
279 6 2 -0.80000 -9.95410 -15.04883 25.10620
280 6 2 -0.80000 -12.36344 -14.11378 25.49421
281 6 3 -0.70000 -12.00377 -16.52384 24.48667
282 6 15 0.40000 -12.43976 -16.25118 23.22400
283 6 14 0.30000 -13.15033 -15.66879 22.07778
284 6 4 -0.70000 -12.83099 -15.84831 20.63198
285 6 12 0.70000 -13.72011 -16.55314 19.77091
286 6 1 -0.70000 -14.56612 -17.32617 20.21199
287 6 15 0.00000 -13.66752 -16.34408 18.20743
288 6 15 0.00000 -13.86307 -16.26143 16.38262
289 6 15 0.00000 -14.08770 -16.19553 14.54782
290 6 15 0.00000 -14.28741 -16.12235 12.70226
291 6 15 0.00000 -14.44843 -16.04141 10.84998
292 6 15 0.00000 -14.57024 -15.95550 8.99496
293 6 15 0.00000 -14.65434 -15.86835 7.14131
294 6 15 0.00000 -14.70306 -15.78021 5.29621
295 6 15 0.00000 -14.72013 -15.69926 3.46695
296 6 15 0.00000 -14.70658 -15.62923 1.66461
297 6 15 0.00000 -14.66183 -15.57510 -0.09881
298 6 15 0.00000 -14.58181 -15.53662 -1.80554
299 6 15 0.00000 -14.47272 -15.52928 -3.45217
300 6 15 0.00000 -14.34235 -15.55371 -5.04915
301 6 15 0.00000 -14.20341 -15.60388 -6.60764
302 6 15 0.00000 -14.10289 -15.57080 -8.29276
303 6 16 0.00000 -13.93410 -15.67848 -9.76311
304 6 15 0.50000 -13.64757 -14.38625 22.49348
305 6 4 -0.70000 -14.00803 -13.31343 23.21037
306 6 12 0.80000 -14.24308 -12.13582 22.59928
307 6 1 -0.60000 -14.68801 -11.13437 23.18674
308 6 15 0.00000 -13.99107 -12.07457 21.19327
309 6 15 0.00000 -13.65763 -12.12197 19.71240
310 6 15 0.00000 -13.26496 -12.18262 18.24744
311 6 15 0.00000 -12.86466 -12.21701 16.78295
312 6 15 0.00000 -12.51035 -12.24126 15.30464
313 6 15 0.00000 -12.22990 -12.28055 13.80943
314 6 15 0.00000 -12.02403 -12.33923 12.30140
315 6 15 0.00000 -11.88280 -12.39797 10.78485
316 6 15 0.00000 -11.80286 -12.42952 9.26156
317 6 15 0.00000 -11.79080 -12.42028 7.73601
318 6 15 0.00000 -11.85366 -12.38512 6.21068
319 6 15 0.00000 -11.99101 -12.35807 4.68855
320 6 15 0.00000 -12.18572 -12.36887 3.17244
321 6 15 0.00000 -12.41125 -12.42151 1.66049
322 6 15 0.00000 -12.64696 -12.49565 0.14825
323 6 15 0.00000 -12.83150 -12.48495 -1.36757
324 6 16 0.00000 -13.10820 -12.62243 -2.87595
325 7 16 0.40000 0.71125 17.57163 29.93106
326 7 16 0.40000 -0.47212 19.35090 28.90110
327 7 16 0.40000 1.03245 18.01219 27.61602
328 7 8 -0.50000 0.03641 17.98682 28.68911
329 7 15 0.30000 -1.07729 17.08676 28.37603
330 7 15 0.40000 -2.28783 16.28089 27.86122
331 7 3 -0.80000 -3.22880 15.78933 27.03986
332 7 30 1.70000 -2.69633 15.85718 25.46689
333 7 2 -0.80000 -2.00695 14.54183 25.20215
334 7 2 -0.80000 -1.88378 17.14378 25.41307
335 7 3 -0.70000 -4.09296 15.96609 24.58516
336 7 15 0.40000 -4.03597 16.38195 23.28803
337 7 14 0.30000 -3.76949 17.16412 22.07348
338 7 4 -0.70000 -3.90434 16.70932 20.65944
339 7 12 0.70000 -4.89868 17.26721 19.80572
340 7 1 -0.70000 -5.88191 17.84858 20.25641
341 7 15 0.00000 -4.75807 17.18107 18.23609
342 7 15 0.00000 -4.82953 17.27173 16.40261
343 7 15 0.00000 -4.92669 17.38386 14.55890
344 7 15 0.00000 -5.00942 17.47405 12.70515
345 7 15 0.00000 -5.07262 17.52972 10.84603
346 7 15 0.00000 -5.11859 17.54973 8.98571
347 7 15 0.00000 -5.15113 17.53460 7.12845
348 7 15 0.00000 -5.17089 17.48691 5.28133
349 7 15 0.00000 -5.18647 17.40805 3.45196
350 7 15 0.00000 -5.20118 17.29853 1.65160
351 7 15 0.00000 -5.21900 17.15702 -0.10744
352 7 15 0.00000 -5.23753 16.98091 -1.80729
353 7 15 0.00000 -5.27324 16.77133 -3.44378
354 7 15 0.00000 -5.32975 16.53475 -5.02770
355 7 15 0.00000 -5.40600 16.28438 -6.57114
356 7 15 0.00000 -5.42198 16.08860 -8.24811
357 7 16 0.00000 -5.53876 15.79744 -9.69850
358 7 15 0.50000 -2.69843 18.07193 22.37951
359 7 4 -0.70000 -1.76710 18.80327 23.00607
360 7 12 0.80000 -0.75902 19.36184 22.30805
361 7 1 -0.60000 0.07143 20.14162 22.80634
362 7 15 0.00000 -0.68619 19.05033 20.91458
363 7 15 0.00000 -0.69327 18.62216 19.45752
364 7 15 0.00000 -0.69296 18.13482 18.02000
365 7 15 0.00000 -0.66536 17.64870 16.58157
366 7 15 0.00000 -0.64370 17.20838 15.12651
367 7 15 0.00000 -0.66091 16.83192 13.65212
368 7 15 0.00000 -0.72117 16.51891 12.16270
369 7 15 0.00000 -0.80280 16.26641 10.66174
370 7 15 0.00000 -0.87885 16.08009 9.14936
371 7 15 0.00000 -0.93842 15.97083 7.62881
372 7 15 0.00000 -0.99768 15.94069 6.10323
373 7 15 0.00000 -1.08855 15.97855 4.57785
374 7 15 0.00000 -1.23345 16.05893 3.05826
375 7 15 0.00000 -1.42765 16.15531 1.54411
376 7 15 0.00000 -1.64549 16.25441 0.03062
377 7 15 0.00000 -1.76677 16.33207 -1.48962
378 7 16 0.00000 -2.05753 16.44990 -2.99701
379 8 16 0.40000 -15.91883 19.25105 32.14653
380 8 16 0.40000 -16.21355 17.16600 31.05443
381 8 16 0.40000 -16.72766 19.19934 29.91051
382 8 8 -0.50000 -15.80113 18.56315 30.84916
383 8 15 0.30000 -14.41945 18.60456 30.36159
384 8 15 0.40000 -13.04503 18.52095 29.66602
385 8 3 -0.80000 -12.11172 18.36758 28.71360
386 8 30 1.70000 -12.76471 18.70765 27.22352
387 8 2 -0.80000 -12.52986 20.17939 26.99057
388 8 2 -0.80000 -14.19384 18.19240 27.32646
389 8 3 -0.70000 -11.85117 17.80381 26.18025
390 8 15 0.40000 -12.31193 17.56611 24.91932
391 8 14 0.30000 -13.15033 17.16412 23.78204
392 8 4 -0.70000 -12.94250 17.50101 22.34404
393 8 12 0.70000 -12.61452 16.48812 21.39785
394 8 1 -0.70000 -12.14720 15.40762 21.74710
395 8 15 0.00000 -12.86691 16.70949 19.85570
396 8 15 0.00000 -13.09496 16.67270 18.03317
397 8 15 0.00000 -13.31737 16.60368 16.19821
398 8 15 0.00000 -13.53885 16.56123 14.35417
399 8 15 0.00000 -13.75510 16.55822 12.50575
400 8 15 0.00000 -13.96310 16.59396 10.65676
401 8 15 0.00000 -14.15967 16.66554 8.81097
402 8 15 0.00000 -14.34500 16.77021 6.97543
403 8 15 0.00000 -14.51229 16.90127 5.15667
404 8 15 0.00000 -14.65786 17.05581 3.36546
405 8 15 0.00000 -14.77626 17.23193 1.61345
406 8 15 0.00000 -14.86554 17.43239 -0.08145
407 8 15 0.00000 -14.91302 17.64601 -1.71712
408 8 15 0.00000 -14.92118 17.86595 -3.30442
409 8 15 0.00000 -14.90044 18.08295 -4.85464
410 8 15 0.00000 -14.97681 18.29951 -6.52739
411 8 16 0.00000 -14.88786 18.51988 -7.99216
412 8 15 0.50000 -14.50435 17.09078 24.25765
413 8 4 -0.70000 -15.60128 17.05736 25.02604
414 8 12 0.80000 -16.81719 17.26405 24.48353
415 8 1 -0.60000 -17.88103 17.13609 25.11428
416 8 15 0.00000 -16.85667 17.61420 23.09791
417 8 15 0.00000 -16.77023 18.01019 21.63432
418 8 15 0.00000 -16.65087 18.45658 20.18847
419 8 15 0.00000 -16.55368 18.91875 18.74517
420 8 15 0.00000 -16.48198 19.34186 17.28662
421 8 15 0.00000 -16.42148 19.69157 15.80679
422 8 15 0.00000 -16.36811 19.96548 14.30942
423 8 15 0.00000 -16.33658 20.17904 12.80055
424 8 15 0.00000 -16.35137 20.34428 11.28388
425 8 15 0.00000 -16.42726 20.45916 9.76448
426 8 15 0.00000 -16.55248 20.51200 8.24351
427 8 15 0.00000 -16.69467 20.49179 6.72172
428 8 15 0.00000 -16.82001 20.40469 5.20076
429 8 15 0.00000 -16.91600 20.27451 3.67975
430 8 15 0.00000 -16.99514 20.12768 2.15656
431 8 15 0.00000 -17.13734 20.05722 0.63778
432 8 16 0.00000 -17.17027 19.85067 -0.88764
433 9 16 0.40000 -5.21154 4.89720 31.71864
434 9 16 0.40000 -4.53751 6.85358 30.55880
435 9 16 0.40000 -4.73074 4.77762 29.39244
436 9 8 -0.50000 -5.32279 5.61551 30.43728
437 9 15 0.30000 -6.72102 5.94332 30.14410
438 9 15 0.40000 -8.10829 6.39374 29.64165
439 9 3 -0.80000 -9.09089 6.80158 28.82320
440 9 30 1.70000 -8.75882 6.33068 27.26424
441 9 2 -0.80000 -9.39752 4.97496 27.09237
442 9 2 -0.80000 -7.24474 6.45501 27.16137
443 9 3 -0.70000 -9.53999 7.45961 26.33947
444 9 15 0.40000 -9.21024 7.59232 25.02327
445 9 14 0.30000 -8.45991 7.78329 23.77489
446 9 4 -0.70000 -8.94278 7.53814 22.38518
447 9 12 0.70000 -9.12258 8.61847 21.47451
448 9 1 -0.70000 -9.24084 9.77675 21.86471
449 9 15 0.00000 -9.14974 8.36719 19.91661
450 9 15 0.00000 -9.17146 8.37657 18.07965
451 9 15 0.00000 -9.19188 8.41877 16.23057
452 9 15 0.00000 -9.22135 8.43571 14.37310
453 9 15 0.00000 -9.26666 8.41602 12.51273
454 9 15 0.00000 -9.33001 8.36106 10.65362
455 9 15 0.00000 -9.41315 8.27442 8.79990
456 9 15 0.00000 -9.51422 8.15856 6.95847
457 9 15 0.00000 -9.63711 8.02160 5.13660
458 9 15 0.00000 -9.78309 7.86712 3.34542
459 9 15 0.00000 -9.95529 7.69814 1.59717
460 9 15 0.00000 -10.15383 7.51220 -0.09009
461 9 15 0.00000 -10.38766 7.32332 -1.71273
462 9 15 0.00000 -10.65409 7.13769 -3.28197
463 9 15 0.00000 -10.94232 6.96172 -4.81058
464 9 15 0.00000 -11.15436 6.76318 -6.47384
465 9 16 0.00000 -11.49698 6.60013 -7.90844
466 9 15 0.50000 -7.08146 7.49371 24.05942
467 9 4 -0.70000 -5.91909 7.22705 24.66983
468 9 12 0.80000 -4.88466 6.72147 23.96996
469 9 1 -0.60000 -3.74819 6.55718 24.44685
470 9 15 0.00000 -5.12739 6.39831 22.59855
471 9 15 0.00000 -5.51307 6.06502 21.16797
472 9 15 0.00000 -5.94089 5.69132 19.76039
473 9 15 0.00000 -6.35127 5.29656 18.35259
474 9 15 0.00000 -6.72921 4.93317 16.92547
475 9 15 0.00000 -7.08030 4.63813 15.47443
476 9 15 0.00000 -7.40727 4.41474 14.00365
477 9 15 0.00000 -7.69926 4.24415 12.51740
478 9 15 0.00000 -7.93549 4.10832 11.01622
479 9 15 0.00000 -8.10061 4.00529 9.50306
480 9 15 0.00000 -8.20266 3.94938 7.98047
481 9 15 0.00000 -8.26962 3.95959 6.45342
482 9 15 0.00000 -8.33520 4.03875 4.92828
483 9 15 0.00000 -8.41765 4.16713 3.40632
484 9 15 0.00000 -8.51218 4.31600 1.88421
485 9 15 0.00000 -8.56568 4.37468 0.35922
486 9 16 0.00000 -8.68917 4.59326 -1.15986
487 10 16 0.40000 -19.01974 -2.75569 32.05331
488 10 16 0.40000 -20.37392 -4.41605 31.03530
489 10 16 0.40000 -19.75900 -2.45805 29.81242
490 10 8 -0.50000 -19.29312 -3.45034 30.78329
491 10 15 0.30000 -18.09946 -4.15644 30.30887
492 10 15 0.40000 -16.97961 -4.97277 29.63110
493 10 3 -0.80000 -16.27472 -5.62690 28.69465
494 10 30 1.70000 -16.66835 -5.05009 27.18643
495 10 2 -0.80000 -15.70004 -3.92891 26.90220
496 10 2 -0.80000 -18.15453 -4.73653 27.29336
497 10 3 -0.70000 -16.37421 -6.33596 26.18648
498 10 15 0.40000 -16.90426 -6.34317 24.93039
499 10 14 0.30000 -17.84074 -6.28796 23.79997
500 10 4 -0.70000 -17.50218 -6.16270 22.35282
501 10 12 0.70000 -17.76297 -7.23121 21.44781
502 10 1 -0.70000 -17.92704 -8.38280 21.84122
503 10 15 0.00000 -17.87804 -6.96710 19.89606
504 10 15 0.00000 -18.11045 -6.94572 18.07383
505 10 15 0.00000 -18.35507 -6.95520 16.24043
506 10 15 0.00000 -18.58507 -6.94288 14.39698
507 10 15 0.00000 -18.79000 -6.89989 12.54777
508 10 15 0.00000 -18.96763 -6.82825 10.69666
509 10 15 0.00000 -19.11672 -6.73198 8.84755
510 10 15 0.00000 -19.23881 -6.61306 7.00759
511 10 15 0.00000 -19.33152 -6.48050 5.18361
512 10 15 0.00000 -19.39316 -6.33833 3.38653
513 10 15 0.00000 -19.41994 -6.19057 1.62812
514 10 15 0.00000 -19.40859 -6.03526 -0.07382
515 10 15 0.00000 -19.35412 -5.88847 -1.71662
516 10 15 0.00000 -19.26234 -5.75511 -3.31091
517 10 15 0.00000 -19.14710 -5.63803 -4.86774
518 10 15 0.00000 -19.11609 -5.47497 -6.54800
519 10 16 0.00000 -18.94009 -5.38761 -8.01886
520 10 15 0.50000 -19.02768 -5.62395 24.26389
521 10 4 -0.70000 -19.97168 -5.04987 25.02159
522 10 12 0.80000 -20.90487 -4.25711 24.45932
523 10 1 -0.60000 -21.87161 -3.78586 25.08327
524 10 15 0.00000 -20.76950 -3.98914 23.06147
525 10 15 0.00000 -20.50367 -3.75094 21.58533
526 10 15 0.00000 -20.18323 -3.48644 20.12542
527 10 15 0.00000 -19.87337 -3.19680 18.66725
528 10 15 0.00000 -19.60584 -2.92763 17.19500
529 10 15 0.00000 -19.38651 -2.71584 15.70407
530 10 15 0.00000 -19.21313 -2.56547 14.19831
531 10 15 0.00000 -19.09006 -2.45546 12.68303
532 10 15 0.00000 -19.03184 -2.36260 11.16127
533 10 15 0.00000 -19.05207 -2.28072 9.63797
534 10 15 0.00000 -19.14683 -2.22587 8.11487
535 10 15 0.00000 -19.29430 -2.22433 6.59345
536 10 15 0.00000 -19.46245 -2.28853 5.07548
537 10 15 0.00000 -19.62814 -2.40476 3.55934
538 10 15 0.00000 -19.78822 -2.54406 2.04181
539 10 15 0.00000 -19.96198 -2.58519 0.52524
540 10 16 0.00000 -20.11399 -2.79961 -0.99185
541 11 16 0.40000 8.90439 -3.44422 30.55355
542 11 16 0.40000 6.83632 -2.80167 29.58545
543 11 16 0.40000 8.82809 -2.79663 28.26630
544 11 8 -0.50000 8.10046 -3.50601 29.32063
545 11 15 0.30000 7.82353 -4.89658 28.94904
546 11 15 0.40000 7.40855 -6.26853 28.37860
547 11 3 -0.80000 6.99218 -7.21303 27.52055
548 11 30 1.70000 7.32975 -6.74734 25.96120
549 11 2 -0.80000 8.69990 -7.29560 25.64887
550 11 2 -0.80000 7.12134 -5.23912 25.97878
551 11 3 -0.70000 6.17711 -7.52420 25.06242
552 11 15 0.40000 5.93145 -7.11153 23.78645
553 11 14 0.30000 5.61134 -6.28796 22.61292
554 11 4 -0.70000 5.77794 -6.65837 21.17780
555 11 12 0.70000 4.64416 -6.83453 20.33383
556 11 1 -0.70000 3.52521 -7.04436 20.79401
557 11 15 0.00000 4.78134 -6.73901 18.76444
558 11 15 0.00000 4.63812 -6.63323 16.93598
559 11 15 0.00000 4.46125 -6.52715 15.09784
560 11 15 0.00000 4.30938 -6.42808 13.24893
561 11 15 0.00000 4.19459 -6.34254 11.39341
562 11 15 0.00000 4.11594 -6.27307 9.53538
563 11 15 0.00000 4.07024 -6.22192 7.67904
564 11 15 0.00000 4.05546 -6.18785 5.83157
565 11 15 0.00000 4.06425 -6.17569 4.00050
566 11 15 0.00000 4.09392 -6.18768 2.19704
567 11 15 0.00000 4.14251 -6.22797 0.43335
568 11 15 0.00000 4.21382 -6.29780 -1.27278
569 11 15 0.00000 4.29460 -6.40710 -2.91742
570 11 15 0.00000 4.37773 -6.55278 -4.51110
571 11 15 0.00000 4.45532 -6.72353 -6.06530
572 11 15 0.00000 4.54163 -6.80776 -7.74942
573 11 16 0.00000 4.61603 -7.03996 -9.21318
574 11 15 0.50000 5.85056 -4.91862 22.97712
575 11 4 -0.70000 6.10188 -3.78848 23.65123
576 11 12 0.80000 6.50140 -2.68114 22.99576
577 11 1 -0.60000 6.64227 -1.57322 23.54227
578 11 15 0.00000 6.73483 -2.80929 21.59106
579 11 15 0.00000 6.98128 -3.07512 20.11627
580 11 15 0.00000 7.27181 -3.38226 18.65846
581 11 15 0.00000 7.58242 -3.67084 17.20024
582 11 15 0.00000 7.85870 -3.92753 15.72738
583 11 15 0.00000 8.06379 -4.15963 14.23744
584 11 15 0.00000 8.19484 -4.37034 12.73464
585 11 15 0.00000 8.27039 -4.54810 11.22269
586 11 15 0.00000 8.30738 -4.67123 9.70240
587 11 15 0.00000 8.30720 -4.72452 8.17770
588 11 15 0.00000 8.25620 -4.71699 6.65154
589 11 15 0.00000 8.13722 -4.67791 5.12813
590 11 15 0.00000 7.94963 -4.64143 3.61152
591 11 15 0.00000 7.71412 -4.62474 2.10027
592 11 15 0.00000 7.45880 -4.62122 0.58940
593 11 15 0.00000 7.29102 -4.57158 -0.92759
594 11 16 0.00000 6.96797 -4.60102 -2.43273
595 12 16 0.40000 -2.61397 -14.87705 29.73796
596 12 16 0.40000 -0.96949 -13.68734 28.51026
597 12 16 0.40000 -2.31227 -15.33808 27.42428
598 12 8 -0.50000 -2.31699 -14.27193 28.42805
599 12 15 0.30000 -3.29134 -13.22555 28.10523
600 12 15 0.40000 -4.19013 -12.09238 27.56862
601 12 3 -0.80000 -4.78235 -11.23466 26.72287
602 12 30 1.70000 -4.79205 -11.87174 25.18781
603 12 2 -0.80000 -6.08529 -12.63795 25.06172
604 12 2 -0.80000 -3.47219 -12.62572 25.09853
605 12 3 -0.70000 -4.81308 -10.53640 24.20990
606 12 15 0.40000 -4.48187 -10.66436 22.89359
607 12 14 0.30000 -3.76949 -10.97837 21.64786
608 12 4 -0.70000 -4.32341 -10.96356 20.26312
609 12 12 0.70000 -3.87472 -10.00640 19.30850
610 12 1 -0.70000 -3.31549 -8.96833 19.65133
611 12 15 0.00000 -4.05758 -10.25987 17.76149
612 12 15 0.00000 -4.09256 -10.31223 15.92545
613 12 15 0.00000 -4.10813 -10.33870 14.07604
614 12 15 0.00000 -4.14550 -10.38126 12.21912
615 12 15 0.00000 -4.21663 -10.44526 10.36055
616 12 15 0.00000 -4.32249 -10.52815 8.50442
617 12 15 0.00000 -4.46250 -10.62585 6.65468
618 12 15 0.00000 -4.63362 -10.73708 4.81814
619 12 15 0.00000 -4.83441 -10.85267 3.00172
620 12 15 0.00000 -5.06378 -10.96852 1.21637
621 12 15 0.00000 -5.32245 -11.07988 -0.52583
622 12 15 0.00000 -5.61170 -11.18800 -2.20674
623 12 15 0.00000 -5.93098 -11.27614 -3.82341
624 12 15 0.00000 -6.27472 -11.34114 -5.38724
625 12 15 0.00000 -6.63053 -11.38428 -6.91113
626 12 15 0.00000 -6.93774 -11.49426 -8.56774
627 12 16 0.00000 -7.33008 -11.49242 -9.99886
628 12 15 0.50000 -2.79007 -11.98240 21.96030
629 12 4 -0.70000 -1.97233 -12.83299 22.59480
630 12 12 0.80000 -1.41076 -13.86036 21.92800
631 12 1 -0.60000 -0.55840 -14.61713 22.42476
632 12 15 0.00000 -1.80996 -14.04443 20.56754
633 12 15 0.00000 -2.33369 -14.15870 19.14661
634 12 15 0.00000 -2.91472 -14.28171 17.74974
635 12 15 0.00000 -3.49321 -14.43192 16.35369
636 12 15 0.00000 -4.02746 -14.57526 14.93751
637 12 15 0.00000 -4.50132 -14.67824 13.49505
638 12 15 0.00000 -4.91515 -14.73645 12.03035
639 12 15 0.00000 -5.27054 -14.77137 10.54853
640 12 15 0.00000 -5.56045 -14.80958 9.05110
641 12 15 0.00000 -5.77328 -14.86123 7.54127
642 12 15 0.00000 -5.90758 -14.90987 6.02094
643 12 15 0.00000 -5.97571 -14.92386 4.49397
644 12 15 0.00000 -6.00384 -14.88164 2.96621
645 12 15 0.00000 -6.01817 -14.78917 1.43949
646 12 15 0.00000 -6.03095 -14.67299 -0.08834
647 12 15 0.00000 -6.06063 -14.65447 -1.61499
648 12 16 0.00000 -6.05804 -14.46432 -3.14289
649 13 16 0.40000 -13.94406 -13.07968 30.68665
650 13 16 0.40000 -13.79525 -10.99559 29.56354
651 13 16 0.40000 -13.45408 -13.03077 28.35981
652 13 8 -0.50000 -14.23822 -12.39089 29.41808
653 13 15 0.30000 -15.67447 -12.42623 29.12756
654 13 15 0.40000 -17.13195 -12.33651 28.63002
655 13 3 -0.80000 -18.18806 -12.17884 27.81671