created with groupy

14080 atoms
11392 bonds
9856 angles
5504 dihedrals
384 impropers

58 atom types
54 bond types
55 angle types
43 dihedral types
3 improper types

-28.844410 28.844410 xlo xhi
-28.844410 28.844410 ylo yhi
-39.574985 39.574985 zlo zhi

Masses

1 15.9994
2 15.9994
3 15.9994
4 15.9994
5 15.9994
6 14.0067
7 14.0067
8 14.0067
9 14.0067
10 14.0067
11 14.0067
12 12.0110
13 12.0110
14 13.0190
15 14.0270
16 15.0350
17 16.0430
18 14.0270
19 13.0190
20 1.0080
21 1.0080
22 999.0   # dummy, this type not in this system
23 32.0600
24 63.5460
25 63.5460
26 55.8470
27 65.3700
28 24.3050
29 40.0800
30 30.9738
31 39.9480
32 18.9984
33 35.4350
34 79.9040
35 15.0350
36 15.9994
37 22.9898
38 35.4350
39 12.0110
40 35.4350
41 1.0080
42 32.0600
43 15.0350
44 15.9994
45 12.0110
46 35.4350
47 18.9984
48 12.0110
49 14.0270
50 15.9994
51 12.0110
52 15.9994
53 14.0067
54 28.0800
55 999.0   # dummy, this type not in this system
56 999.0   # dummy, this type not in this system
57 15.9994
58 1.0080

Atoms

1 1 16 0.40000 26.80298 -21.99362 27.54615
2 1 16 0.40000 24.87731 -21.16496 26.43615
3 1 16 0.40000 26.94738 -21.35685 25.25915
4 1 8 -0.50000 26.08437 -21.98732 26.26015
5 1 15 0.30000 25.70346 -23.34793 25.87015
6 1 15 0.40000 25.20103 -24.67827 25.27215
7 1 3 -0.80000 24.75766 -25.58486 24.38715
8 1 30 1.70000 25.24529 -25.16346 22.85515
9 1 2 -0.80000 26.57572 -25.84077 22.63915
10 1 2 -0.80000 25.17995 -23.64221 22.85815
11 1 3 -0.70000 24.08946 -25.83386 21.87815
12 1 15 0.40000 23.97319 -25.40827 20.58815
13 1 14 0.30000 23.81479 -24.56590 19.39515
14 1 4 -0.70000 24.04482 -24.95988 17.97515
15 1 12 0.70000 22.96081 -25.03369 17.05415
16 1 1 -0.70000 21.79777 -25.13382 17.43515
17 1 15 0.00000 23.21507 -24.96193 15.49815
18 1 15 0.00000 23.20983 -24.85517 13.66415
19 1 15 0.00000 23.17188 -24.74500 11.81815
20 1 15 0.00000 23.15884 -24.64425 9.96315
21 1 15 0.00000 23.18180 -24.56051 8.10415
22 1 15 0.00000 23.23930 -24.49619 6.24515
23 1 15 0.00000 23.32767 -24.45322 4.39015
24 1 15 0.00000 23.44451 -24.43011 2.54615
25 1 15 0.00000 23.58154 -24.43093 0.72015
26 1 15 0.00000 23.73511 -24.45759 -1.07685
27 1 15 0.00000 23.90203 -24.51394 -2.83285
28 1 15 0.00000 24.08471 -24.60146 -4.52985
29 1 15 0.00000 24.26878 -24.72877 -6.16485
30 1 15 0.00000 24.44821 -24.89218 -7.74885
31 1 16 0.00000 24.61702 -25.07976 -9.29385
32 1 15 0.50000 24.15676 -23.22291 19.77515
33 1 4 -0.70000 24.46658 -22.11715 20.46515
34 1 12 0.80000 25.01373 -21.05686 19.83915
35 1 1 -0.60000 25.22060 -19.96362 20.39415
36 1 15 0.00000 25.33096 -21.21577 18.45415
37 1 15 0.00000 25.65293 -21.51344 17.00015
38 1 15 0.00000 26.01360 -21.85628 15.56615
39 1 15 0.00000 26.39598 -22.18255 14.13315
40 1 15 0.00000 26.74832 -22.47392 12.68315
41 1 15 0.00000 27.03347 -22.73419 11.21115
42 1 15 0.00000 27.24802 -22.96627 9.72115
43 1 15 0.00000 27.41120 -23.16036 8.21815
44 1 15 0.00000 27.54185 -23.29647 6.70415
45 1 15 0.00000 27.64250 -23.35958 5.18315
46 1 15 0.00000 27.69855 -23.35735 3.65715
47 1 15 0.00000 27.68988 -23.31726 2.12915
48 1 15 0.00000 27.61237 -23.27325 0.60315
49 1 15 0.00000 27.48501 -23.24437 -0.92085
50 1 16 0.00000 27.33671 -23.22672 -2.44585
51 2 16 0.40000 27.62778 26.91533 25.90942
52 2 16 0.40000 26.25963 28.50375 24.79942
53 2 16 0.40000 28.03650 27.42451 23.62242
54 2 8 -0.50000 26.98454 27.23576 24.62342
55 2 15 0.30000 26.04613 26.17946 24.23342
56 2 15 0.40000 25.01175 25.20360 23.63542
57 2 3 -0.80000 24.21608 24.58282 22.75042
58 2 30 1.70000 24.83902 24.74805 21.21842
59 2 2 -0.80000 25.73836 23.55642 21.00242
60 2 2 -0.80000 25.44662 26.14422 21.22142
61 2 3 -0.70000 23.50632 24.65165 20.24142
62 2 15 0.40000 23.58822 25.08518 18.95142
63 2 14 0.30000 23.81479 25.91182 17.75842
64 2 4 -0.70000 23.84901 25.45689 16.33842
65 2 12 0.70000 22.84219 25.86535 15.41742
66 2 1 -0.70000 21.75280 26.28477 15.79842
67 2 15 0.00000 23.10219 25.81849 13.86142
68 2 15 0.00000 23.14425 25.91676 12.02742
69 2 15 0.00000 23.15838 26.03242 10.18142
70 2 15 0.00000 23.19079 26.12871 8.32642
71 2 15 0.00000 23.24812 26.19393 6.46742
72 2 15 0.00000 23.32797 26.22656 4.60842
73 2 15 0.00000 23.42624 26.22648 2.75342
74 2 15 0.00000 23.54140 26.19607 0.90942
75 2 15 0.00000 23.66423 26.13531 -0.91658
76 2 15 0.00000 23.79060 26.04409 -2.71358
77 2 15 0.00000 23.91597 25.92031 -4.46958
78 2 15 0.00000 24.04186 25.76162 -6.16658
79 2 15 0.00000 24.15158 25.56655 -7.80158
80 2 15 0.00000 24.24130 25.34105 -9.38558
81 2 16 0.00000 24.31089 25.09848 -10.93058
82 2 15 0.50000 24.71046 26.96933 18.13842
83 2 4 -0.70000 25.47332 27.82767 18.82842
84 2 12 0.80000 26.42962 28.54117 18.20242
85 2 1 -0.60000 27.09445 29.43334 18.75742
86 2 15 0.00000 26.64519 28.25937 16.81742
87 2 15 0.00000 26.80425 27.85074 15.36342
88 2 15 0.00000 26.97831 27.38456 13.92942
89 2 15 0.00000 27.17915 26.92376 12.49642
90 2 15 0.00000 27.36826 26.50750 11.04642
91 2 15 0.00000 27.51060 26.14862 9.57442
92 2 15 0.00000 27.60182 25.84601 8.08442
93 2 15 0.00000 27.66350 25.60006 6.58142
94 2 15 0.00000 27.72133 25.42048 5.06742
95 2 15 0.00000 27.78416 25.31965 3.54642
96 2 15 0.00000 27.83552 25.29711 2.02042
97 2 15 0.00000 27.84529 25.33694 0.49242
98 2 15 0.00000 27.79489 25.41046 -1.03358
99 2 15 0.00000 27.69305 25.49221 -2.55758
100 2 16 0.00000 27.56747 25.57303 -4.08258
101 3 16 0.40000 19.83798 -22.31085 26.02353
102 3 16 0.40000 18.00657 -21.29065 24.91353
103 3 16 0.40000 20.04639 -21.69207 23.73653
104 3 8 -0.50000 19.12374 -22.23150 24.73753
105 3 15 0.30000 18.60643 -23.54632 24.34753
106 3 15 0.40000 17.97131 -24.81867 23.74953
107 3 3 -0.80000 17.43804 -25.67546 22.86453
108 3 30 1.70000 17.96600 -25.30584 21.33253
109 3 2 -0.80000 19.22065 -26.11494 21.11653
110 3 2 -0.80000 18.05571 -23.78583 21.33553
111 3 3 -0.70000 16.74799 -25.85522 20.35553
112 3 15 0.40000 16.67560 -25.42001 19.06553
113 3 14 0.30000 16.60369 -24.56590 17.87253
114 3 4 -0.70000 16.79246 -24.98123 16.45253
115 3 12 0.70000 15.70656 -24.94442 15.53153
116 3 1 -0.70000 14.53937 -24.92574 15.91253
117 3 15 0.00000 15.96680 -24.89889 13.97553
118 3 15 0.00000 15.97245 -24.79215 12.14153
119 3 15 0.00000 15.94590 -24.67869 10.29553
120 3 15 0.00000 15.94317 -24.57713 8.44053
121 3 15 0.00000 15.97453 -24.49616 6.58153
122 3 15 0.00000 16.03827 -24.43803 4.72253
123 3 15 0.00000 16.13055 -24.40427 2.86753
124 3 15 0.00000 16.24914 -24.39316 1.02353
125 3 15 0.00000 16.38538 -24.40791 -0.80247
126 3 15 0.00000 16.53543 -24.45005 -2.59947
127 3 15 0.00000 16.69576 -24.52309 -4.35547
128 3 15 0.00000 16.86859 -24.62873 -6.05247
129 3 15 0.00000 17.03876 -24.77410 -7.68747
130 3 15 0.00000 17.20064 -24.95491 -9.27147
131 3 16 0.00000 17.34950 -25.15868 -10.81647
132 3 15 0.50000 17.08047 -23.26465 18.25253
133 3 4 -0.70000 17.50113 -22.19613 18.94253
134 3 12 0.80000 18.15327 -21.19698 18.31653
135 3 1 -0.60000 18.47026 -20.13046 18.87153
136 3 15 0.00000 18.45270 -21.38733 16.93153
137 3 15 0.00000 18.74273 -21.71620 15.47753
138 3 15 0.00000 19.06666 -22.09395 14.04353
139 3 15 0.00000 19.41388 -22.45741 12.61053
140 3 15 0.00000 19.73476 -22.78310 11.16053
141 3 15 0.00000 19.99197 -23.07103 9.68853
142 3 15 0.00000 20.18180 -23.32372 8.19853
143 3 15 0.00000 20.32440 -23.53340 6.69553
144 3 15 0.00000 20.44052 -23.68209 5.18153
145 3 15 0.00000 20.53423 -23.75511 3.66053
146 3 15 0.00000 20.59022 -23.75859 2.13453
147 3 15 0.00000 20.58567 -23.71783 0.60653
148 3 15 0.00000 20.51304 -23.66616 -0.91947
149 3 15 0.00000 20.38928 -23.62447 -2.44347
150 3 16 0.00000 20.24354 -23.59184 -3.96847
151 4 16 0.40000 25.84954 -20.73203 25.49079
152 4 16 0.40000 26.98940 -18.97259 24.38079
153 4 16 0.40000 26.45308 -20.98117 23.20379
154 4 8 -0.50000 25.97626 -20.02466 24.20479
155 4 15 0.30000 24.69879 -19.42096 23.81479
156 4 15 0.40000 23.47155 -18.70255 23.21679
157 4 3 -0.80000 22.65215 -18.11344 22.33179
158 4 30 1.70000 22.98581 -18.66482 20.79979
159 4 2 -0.80000 22.09498 -19.86283 20.58379
160 4 2 -0.80000 24.49647 -18.85552 20.80279
161 4 3 -0.70000 22.51873 -17.41295 19.82279
162 4 15 0.40000 22.95779 -17.36969 18.53279
163 4 14 0.30000 23.81479 -17.35480 17.33979
164 4 4 -0.70000 23.38782 -17.51550 15.91979
165 4 12 0.70000 23.49684 -16.43446 14.99879
166 4 1 -0.70000 23.59317 -15.27110 15.37979
167 4 15 0.00000 23.52494 -16.69715 13.44279
168 4 15 0.00000 23.63107 -16.70989 11.60879
169 4 15 0.00000 23.74604 -16.69095 9.76279
170 4 15 0.00000 23.84756 -16.69499 7.90779
171 4 15 0.00000 23.92626 -16.73167 6.04879
172 4 15 0.00000 23.98002 -16.79914 4.18979
173 4 15 0.00000 24.00757 -16.89347 2.33479
174 4 15 0.00000 24.01075 -17.01253 0.49079
175 4 15 0.00000 23.98696 -17.14748 -1.33521
176 4 15 0.00000 23.93493 -17.29440 -3.13221
177 4 15 0.00000 23.85139 -17.44951 -4.88821
178 4 15 0.00000 23.73447 -17.61493 -6.58521
179 4 15 0.00000 23.57810 -17.77505 -8.22021
180 4 15 0.00000 23.38691 -17.92453 -9.80421
181 4 16 0.00000 23.17368 -18.05949 -11.34921
182 4 15 0.50000 25.08142 -17.91714 17.71979
183 4 4 -0.70000 26.11957 -18.40800 18.40979
184 4 12 0.80000 27.07309 -19.12520 17.78379
185 4 1 -0.60000 28.11615 -19.51248 18.33879
186 4 15 0.00000 26.86323 -19.41129 16.39879
187 4 15 0.00000 26.51578 -19.67879 14.94479
188 4 15 0.00000 26.11731 -19.97686 13.51079
189 4 15 0.00000 25.73154 -20.29911 12.07779
190 4 15 0.00000 25.38521 -20.59760 10.62779
191 4 15 0.00000 25.08080 -20.83507 9.15579
192 4 15 0.00000 24.81603 -21.00766 7.66579
193 4 15 0.00000 24.59733 -21.13598 6.16279
194 4 15 0.00000 24.44124 -21.24195 4.64879
195 4 15 0.00000 24.36214 -21.33059 3.12779
196 4 15 0.00000 24.35494 -21.38622 1.60179
197 4 15 0.00000 24.39591 -21.38440 0.07379
198 4 15 0.00000 24.45230 -21.31537 -1.45221
199 4 15 0.00000 24.50213 -21.19466 -2.97621
200 4 16 0.00000 24.54439 -21.05142 -4.50121
201 5 16 0.40000 12.33653 1.65571 25.44474
202 5 16 0.40000 12.90396 3.67386 24.33474
203 5 16 0.40000 12.98678 1.59656 23.15774
204 5 8 -0.50000 12.24799 2.36887 24.15874
205 5 15 0.30000 10.84903 2.56699 23.76874
206 5 15 0.40000 9.46404 2.88957 23.17074
207 5 3 -0.80000 8.50690 3.20948 22.28574
208 5 30 1.70000 8.98893 2.78170 20.75374
209 5 2 -0.80000 8.49302 1.37355 20.53774
210 5 2 -0.80000 10.48827 3.04711 20.75674
211 5 3 -0.70000 8.17193 3.83900 19.77674
212 5 15 0.40000 8.57847 4.01039 18.48674
213 5 14 0.30000 9.39259 4.27851 17.29374
214 5 4 -0.70000 9.03240 3.99853 15.87374
215 5 12 0.70000 8.81625 5.06333 14.95274
216 5 1 -0.70000 8.56359 6.20301 15.33374
217 5 15 0.00000 8.92092 4.82076 13.39674
218 5 15 0.00000 9.02605 4.84003 11.56274
219 5 15 0.00000 9.13025 4.89218 9.71674
220 5 15 0.00000 9.22841 4.91840 7.86174
221 5 15 0.00000 9.31444 4.90669 6.00274
222 5 15 0.00000 9.38578 4.85818 4.14374
223 5 15 0.00000 9.44003 4.77624 2.28874
224 5 15 0.00000 9.47835 4.66347 0.44474
225 5 15 0.00000 9.49561 4.52752 -1.38126
226 5 15 0.00000 9.48944 4.37178 -3.17826
227 5 15 0.00000 9.45560 4.19889 -4.93426
228 5 15 0.00000 9.39294 4.00626 -6.63126
229 5 15 0.00000 9.29102 3.80700 -8.26626
230 5 15 0.00000 9.15271 3.60759 -9.85026
231 5 16 0.00000 8.98903 3.41551 -11.39526
232 5 15 0.50000 10.76895 4.11667 17.67374
233 5 4 -0.70000 11.90592 3.95541 18.36374
234 5 12 0.80000 13.02911 3.55289 17.73774
235 5 1 -0.60000 14.14008 3.49202 18.29274
236 5 15 0.00000 12.91343 3.21747 16.35274
237 5 15 0.00000 12.66083 2.85905 14.89874
238 5 15 0.00000 12.36855 2.45631 13.46474
239 5 15 0.00000 12.09557 2.03423 12.03174
240 5 15 0.00000 11.85322 1.64654 10.58174
241 5 15 0.00000 11.63283 1.32955 9.10974
242 5 15 0.00000 11.43108 1.08626 7.61974
243 5 15 0.00000 11.26021 0.89891 6.11674
244 5 15 0.00000 11.14252 0.75145 4.60274
245 5 15 0.00000 11.09324 0.64336 3.08174
246 5 15 0.00000 11.10284 0.58810 1.55574
247 5 15 0.00000 11.14144 0.60197 0.02774
248 5 15 0.00000 11.17484 0.68461 -1.49826
249 5 15 0.00000 11.18667 0.81466 -3.02226
250 5 16 0.00000 11.18460 0.96400 -4.54726
251 6 16 0.40000 -18.58304 -20.71998 25.74651
252 6 16 0.40000 -20.62351 -21.20101 24.63651
253 6 16 0.40000 -18.84624 -20.12244 23.45951
254 6 8 -0.50000 -19.16409 -21.14285 24.46051
255 6 15 0.30000 -18.65986 -22.46274 24.07051
256 6 15 0.40000 -18.27127 -23.83067 23.47251
257 6 3 -0.80000 -18.08757 -24.82301 22.58751
258 6 30 1.70000 -17.94678 -24.19409 21.05551
259 6 2 -0.80000 -16.47463 -23.94594 20.83951
260 6 2 -0.80000 -18.90517 -23.01090 21.05851
261 6 3 -0.70000 -18.47609 -25.42096 20.07851
262 6 15 0.40000 -18.82294 -25.14829 18.78851
263 6 14 0.30000 -19.45182 -24.56590 17.59551
264 6 4 -0.70000 -19.03241 -24.74542 16.17551
265 6 12 0.70000 -19.85930 -25.45025 15.25451
266 6 1 -0.70000 -20.73401 -26.22328 15.63551
267 6 15 0.00000 -19.69778 -25.24119 13.69851
268 6 15 0.00000 -19.76556 -25.15854 11.86451
269 6 15 0.00000 -19.86165 -25.09264 10.01851
270 6 15 0.00000 -19.93213 -25.01947 8.16351
271 6 15 0.00000 -19.96355 -24.93852 6.30451
272 6 15 0.00000 -19.95566 -24.85261 4.44551
273 6 15 0.00000 -19.91025 -24.76546 2.59051
274 6 15 0.00000 -19.83015 -24.67732 0.74651
275 6 15 0.00000 -19.71958 -24.59638 -1.07949
276 6 15 0.00000 -19.58033 -24.52634 -2.87649
277 6 15 0.00000 -19.41268 -24.47221 -4.63249
278 6 15 0.00000 -19.21380 -24.43373 -6.32949
279 6 15 0.00000 -18.99012 -24.42639 -7.96449
280 6 15 0.00000 -18.74866 -24.45082 -9.54849
281 6 16 0.00000 -18.50134 -24.50099 -11.09349
282 6 15 0.50000 -19.97685 -23.28336 17.97551
283 6 4 -0.70000 -20.38644 -22.21055 18.66551
284 6 12 0.80000 -20.57829 -21.03293 18.03951
285 6 1 -0.60000 -21.06312 -20.03148 18.59451
286 6 15 0.00000 -20.22881 -20.97168 16.65451
287 6 15 0.00000 -19.79289 -21.01908 15.20051
288 6 15 0.00000 -19.29898 -21.07973 13.76651
289 6 15 0.00000 -18.79750 -21.11412 12.33351
290 6 15 0.00000 -18.34094 -21.13838 10.88351
291 6 15 0.00000 -17.95686 -21.17766 9.41151
292 6 15 0.00000 -17.64630 -21.23634 7.92151
293 6 15 0.00000 -17.39963 -21.29509 6.41851
294 6 15 0.00000 -17.21362 -21.32663 4.90451
295 6 15 0.00000 -17.09518 -21.31740 3.38351
296 6 15 0.00000 -17.05148 -21.28223 1.85751
297 6 15 0.00000 -17.08232 -21.25518 0.32951
298 6 15 0.00000 -17.17080 -21.26598 -1.19649
299 6 15 0.00000 -17.29031 -21.31862 -2.72049
300 6 16 0.00000 -17.41995 -21.39276 -4.24549
301 7 16 0.40000 -1.10790 26.31933 25.74221
302 7 16 0.40000 -2.21655 28.09860 24.63221
303 7 16 0.40000 -0.62600 26.75988 23.45521
304 7 8 -0.50000 -1.69446 26.73452 24.45621
305 7 15 0.30000 -2.78362 25.83446 24.06621
306 7 15 0.40000 -3.95529 25.02859 23.46821
307 7 3 -0.80000 -4.83668 24.53703 22.58321
308 7 30 1.70000 -4.19578 24.60487 21.05121
309 7 2 -0.80000 -3.48961 23.28953 20.83521
310 7 2 -0.80000 -3.38145 25.89148 21.05421
311 7 3 -0.70000 -5.52750 24.71379 20.07421
312 7 15 0.40000 -5.38016 25.12965 18.78421
313 7 14 0.30000 -5.02962 25.91182 17.59121
314 7 4 -0.70000 -5.06550 25.45702 16.17121
315 7 12 0.70000 -5.99786 26.01490 15.25021
316 7 1 -0.70000 -7.01013 26.59627 15.63121
317 7 15 0.00000 -5.74810 25.92877 13.69421
318 7 15 0.00000 -5.69149 26.01943 11.86021
319 7 15 0.00000 -5.65980 26.13156 10.01421
320 7 15 0.00000 -5.61302 26.22175 8.15921
321 7 15 0.00000 -5.54639 26.27742 6.30021
322 7 15 0.00000 -5.46247 26.29743 4.44121
323 7 15 0.00000 -5.36537 26.28229 2.58621
324 7 15 0.00000 -5.25623 26.23460 0.74221
325 7 15 0.00000 -5.14417 26.15574 -1.08379
326 7 15 0.00000 -5.03326 26.04623 -2.88079
327 7 15 0.00000 -4.92833 25.90471 -4.63679
328 7 15 0.00000 -4.82824 25.72860 -6.33379
329 7 15 0.00000 -4.74971 25.51903 -7.96879
330 7 15 0.00000 -4.69559 25.28245 -9.55279
331 7 16 0.00000 -4.66398 25.03208 -11.09779
332 7 15 0.50000 -3.98251 26.81963 17.97121
333 7 4 -0.70000 -3.09715 27.55096 18.66121
334 7 12 0.80000 -2.04284 28.10954 18.03521
335 7 1 -0.60000 -1.24917 28.88932 18.59021
336 7 15 0.00000 -1.87298 27.79803 16.65021
337 7 15 0.00000 -1.77841 27.36986 15.19621
338 7 15 0.00000 -1.67782 26.88251 13.76221
339 7 15 0.00000 -1.54995 26.39639 12.32921
340 7 15 0.00000 -1.42684 25.95607 10.87921
341 7 15 0.00000 -1.34116 25.57962 9.40721
342 7 15 0.00000 -1.29738 25.26661 7.91721
343 7 15 0.00000 -1.27411 25.01411 6.41421
344 7 15 0.00000 -1.24448 24.82779 4.90021
345 7 15 0.00000 -1.19783 24.71853 3.37921
346 7 15 0.00000 -1.15053 24.68838 1.85321
347 7 15 0.00000 -1.13477 24.72625 0.32521
348 7 15 0.00000 -1.17331 24.80662 -1.20079
349 7 15 0.00000 -1.26142 24.90301 -2.72479
350 7 16 0.00000 -1.37315 25.00211 -4.24979
351 8 16 0.40000 -22.79706 27.99875 27.45077
352 8 16 0.40000 -23.01488 25.91370 26.34077
353 8 16 0.40000 -23.44794 27.94704 25.16377
354 8 8 -0.50000 -22.58914 27.31085 26.16477
355 8 15 0.30000 -21.17682 27.35226 25.77477
356 8 15 0.40000 -19.75722 27.26865 25.17677
357 8 3 -0.80000 -18.75976 27.11528 24.29177
358 8 30 1.70000 -19.30721 27.45535 22.75977
359 8 2 -0.80000 -19.05668 28.92709 22.54377
360 8 2 -0.80000 -20.74004 26.94010 22.76277
361 8 3 -0.70000 -18.32312 26.55151 21.78277
362 8 15 0.40000 -18.69480 26.31381 20.49277
363 8 14 0.30000 -19.45182 25.91182 19.29977
364 8 4 -0.70000 -19.14419 26.24870 17.87977
365 8 12 0.70000 -18.75101 25.23582 16.95877
366 8 1 -0.70000 -18.30918 24.15532 17.33977
367 8 15 0.00000 -18.89521 25.45718 15.40277
368 8 15 0.00000 -18.99557 25.42040 13.56877
369 8 15 0.00000 -19.08944 25.35137 11.72277
370 8 15 0.00000 -19.18175 25.30893 9.86777
371 8 15 0.00000 -19.26853 25.30592 8.00877
372 8 15 0.00000 -19.34704 25.34166 6.14977
373 8 15 0.00000 -19.41437 25.41324 4.29477
374 8 15 0.00000 -19.47122 25.51790 2.45077
375 8 15 0.00000 -19.51123 25.64896 0.62477
376 8 15 0.00000 -19.53150 25.80350 -1.17223
377 8 15 0.00000 -19.52739 25.97963 -2.92823
378 8 15 0.00000 -19.49822 26.18008 -4.62523
379 8 15 0.00000 -19.43149 26.39371 -6.26023
380 8 15 0.00000 -19.32890 26.61365 -7.84423
381 8 16 0.00000 -19.20008 26.83065 -9.38923
382 8 15 0.50000 -20.83572 25.83847 19.67977
383 8 4 -0.70000 -21.98358 25.80505 20.36977
384 8 12 0.80000 -23.15868 26.01175 19.74377
385 8 1 -0.60000 -24.26394 25.88379 20.29877
386 8 15 0.00000 -23.10142 26.36190 18.35877
387 8 15 0.00000 -22.91309 26.75789 16.90477
388 8 15 0.00000 -22.69317 27.20427 15.47077
389 8 15 0.00000 -22.49553 27.66645 14.03777
390 8 15 0.00000 -22.32227 28.08955 12.58777
391 8 15 0.00000 -22.15868 28.43926 11.11577
392 8 15 0.00000 -22.00099 28.71317 9.62577
393 8 15 0.00000 -21.86429 28.92674 8.12277
394 8 15 0.00000 -21.77324 29.09198 6.60877
395 8 15 0.00000 -21.74295 29.20685 5.08777
396 8 15 0.00000 -21.76177 29.25969 3.56177
397 8 15 0.00000 -21.79746 29.23949 2.03377
398 8 15 0.00000 -21.81640 29.15238 0.50777
399 8 15 0.00000 -21.80606 29.02221 -1.01623
400 8 16 0.00000 -21.77876 28.87538 -2.54123
401 9 16 0.40000 -9.55439 8.60352 27.44362
402 9 16 0.40000 -8.80110 10.55991 26.33362
403 9 16 0.40000 -8.91250 8.48395 25.15662
404 9 8 -0.50000 -9.57599 9.32183 26.15762
405 9 15 0.30000 -10.95036 9.64965 25.76762
406 9 15 0.40000 -12.29920 10.10006 25.16962
407 9 3 -0.80000 -13.22231 10.50791 24.28462
408 9 30 1.70000 -12.78230 10.03700 22.75262
409 9 2 -0.80000 -13.40746 8.68128 22.53662
410 9 2 -0.80000 -11.26474 10.16133 22.75562
411 9 3 -0.70000 -13.49706 11.16593 21.77562
412 9 15 0.40000 -13.07630 11.29864 20.48562
413 9 14 0.30000 -12.24072 11.48961 19.29262
414 9 4 -0.70000 -12.62547 11.24447 17.87262
415 9 12 0.70000 -12.74131 12.32479 16.95162
416 9 1 -0.70000 -12.88650 13.48307 17.33262
417 9 15 0.00000 -12.65973 12.07352 15.39562
418 9 15 0.00000 -12.55325 12.08289 13.56162
419 9 15 0.00000 -12.44464 12.12509 11.71562
420 9 15 0.00000 -12.34447 12.14204 9.86062
421 9 15 0.00000 -12.25990 12.12234 8.00162
422 9 15 0.00000 -12.19340 12.06738 6.14262
423 9 15 0.00000 -12.14703 11.98074 4.28762
424 9 15 0.00000 -12.11941 11.86488 2.44362
425 9 15 0.00000 -12.11491 11.72793 0.61762
426 9 15 0.00000 -12.13559 11.57344 -1.17938
427 9 15 0.00000 -12.18542 11.40446 -2.93538
428 9 15 0.00000 -12.26578 11.21852 -4.63238
429 9 15 0.00000 -12.38585 11.02964 -6.26738
430 9 15 0.00000 -12.54217 10.84401 -7.85138
431 9 16 0.00000 -12.72306 10.66804 -9.39638
432 9 15 0.50000 -10.88547 11.20003 19.67262
433 9 4 -0.70000 -9.76851 10.93337 20.36262
434 9 12 0.80000 -8.68779 10.42779 19.73662
435 9 1 -0.60000 -7.58735 10.26350 20.29162
436 9 15 0.00000 -8.83426 10.10463 18.35162
437 9 15 0.00000 -9.11921 9.77135 16.89762
438 9 15 0.00000 -9.44780 9.39764 15.46362
439 9 15 0.00000 -9.75897 9.00288 14.03062
440 9 15 0.00000 -10.03645 8.63950 12.58062
441 9 15 0.00000 -10.28546 8.34446 11.10862
442 9 15 0.00000 -10.50903 8.12106 9.61862
443 9 15 0.00000 -10.69664 7.95047 8.11562
444 9 15 0.00000 -10.82758 7.81464 6.60162
445 9 15 0.00000 -10.88674 7.71161 5.08062
446 9 15 0.00000 -10.88233 7.65570 3.55462
447 9 15 0.00000 -10.84261 7.66591 2.02662
448 9 15 0.00000 -10.80163 7.74508 0.50062
449 9 15 0.00000 -10.77772 7.87345 -1.02338
450 9 16 0.00000 -10.76585 8.02233 -2.54838
451 10 16 0.40000 -28.41477 -6.61143 27.46870
452 10 16 0.40000 -29.69465 -8.27179 26.35870
453 10 16 0.40000 -28.99592 -6.31378 25.18170
454 10 8 -0.50000 -28.59889 -7.30607 26.18270
455 10 15 0.30000 -27.37505 -8.01218 25.79270
456 10 15 0.40000 -26.21064 -8.82851 25.19470
457 10 3 -0.80000 -25.44215 -9.48264 24.30970
458 10 30 1.70000 -25.72962 -8.90582 22.77770
459 10 2 -0.80000 -24.74383 -7.78465 22.56170
460 10 2 -0.80000 -27.21963 -8.59226 22.78070
461 10 3 -0.70000 -25.36644 -10.19169 21.80070
462 10 15 0.40000 -25.80757 -10.19891 20.51070
463 10 14 0.30000 -26.66292 -10.14369 19.31770
464 10 4 -0.70000 -26.22424 -10.01843 17.89770
465 10 12 0.70000 -26.42127 -11.08694 16.97670
466 10 1 -0.70000 -26.61238 -12.23854 17.35770
467 10 15 0.00000 -26.42781 -10.82284 15.42070
468 10 15 0.00000 -26.53254 -10.80146 13.58670
469 10 15 0.00000 -26.64867 -10.81094 11.74070
470 10 15 0.00000 -26.74952 -10.79862 9.88570
471 10 15 0.00000 -26.82496 -10.75562 8.02670
472 10 15 0.00000 -26.87302 -10.68399 6.16770
473 10 15 0.00000 -26.89276 -10.58772 4.31270
474 10 15 0.00000 -26.88620 -10.46880 2.46870
475 10 15 0.00000 -26.85146 -10.33624 0.64270
476 10 15 0.00000 -26.78759 -10.19406 -1.15430
477 10 15 0.00000 -26.69165 -10.04631 -2.91030
478 10 15 0.00000 -26.56160 -9.89100 -4.60730
479 10 15 0.00000 -26.39266 -9.74420 -6.24230
480 10 15 0.00000 -26.18990 -9.61085 -7.82630
481 10 16 0.00000 -25.96634 -9.49377 -9.37130
482 10 15 0.50000 -27.87933 -9.47969 19.69770
483 10 4 -0.70000 -28.87388 -8.90561 20.38770
484 10 12 0.80000 -29.76558 -8.11285 19.76170
485 10 1 -0.60000 -30.77349 -7.64160 20.31670
486 10 15 0.00000 -29.53304 -7.84487 18.37670
487 10 15 0.00000 -29.16488 -7.60668 16.92270
488 10 15 0.00000 -28.74338 -7.34218 15.48870
489 10 15 0.00000 -28.33256 -7.05254 14.05570
490 10 15 0.00000 -27.96299 -6.78336 12.60570
491 10 15 0.00000 -27.64018 -6.57158 11.13370
492 10 15 0.00000 -27.36219 -6.42121 9.64370
493 10 15 0.00000 -27.13372 -6.31119 8.14070
494 10 15 0.00000 -26.96949 -6.21834 6.62670
495 10 15 0.00000 -26.88341 -6.13646 5.10570
496 10 15 0.00000 -26.87169 -6.08161 3.57970
497 10 15 0.00000 -26.91268 -6.08007 2.05170
498 10 15 0.00000 -26.97452 -6.14427 0.52570
499 10 15 0.00000 -27.03405 -6.26050 -0.99830
500 10 16 0.00000 -27.08788 -6.39980 -2.52330
501 11 16 0.40000 12.12371 -7.29995 26.28165
502 11 16 0.40000 10.12821 -6.65740 25.17165
503 11 16 0.40000 12.20715 -6.65237 23.99465
504 11 8 -0.50000 11.40774 -7.36174 24.99565
505 11 15 0.30000 11.15740 -8.75232 24.60565
506 11 15 0.40000 10.78323 -10.12427 24.00765
507 11 3 -0.80000 10.42773 -11.06877 23.12265
508 11 30 1.70000 10.87325 -10.60308 21.59065
509 11 2 -0.80000 12.26185 -11.15134 21.37465
510 11 2 -0.80000 10.66413 -9.09486 21.59365
511 11 3 -0.70000 9.78612 -11.37994 20.61365
512 11 15 0.40000 9.63006 -10.96727 19.32365
513 11 14 0.30000 9.39259 -10.14369 18.13065
514 11 4 -0.70000 9.65890 -10.51411 16.71065
515 11 12 0.70000 8.58675 -10.69027 15.78965
516 11 1 -0.70000 7.43842 -10.90010 16.17065
517 11 15 0.00000 8.83307 -10.59475 14.23365
518 11 15 0.00000 8.81774 -10.48896 12.39965
519 11 15 0.00000 8.76953 -10.38289 10.55365
520 11 15 0.00000 8.74700 -10.28382 8.69865
521 11 15 0.00000 8.76193 -10.19828 6.83965
522 11 15 0.00000 8.81308 -10.12881 4.98065
523 11 15 0.00000 8.89698 -10.07766 3.12565
524 11 15 0.00000 9.01111 -10.04359 1.28165
525 11 15 0.00000 9.14760 -10.03143 -0.54435
526 11 15 0.00000 9.30300 -10.04342 -2.34135
527 11 15 0.00000 9.47451 -10.08371 -4.09735
528 11 15 0.00000 9.66466 -10.15353 -5.79435
529 11 15 0.00000 9.85996 -10.26283 -7.42935
530 11 15 0.00000 10.05406 -10.40852 -9.01335
531 11 16 0.00000 10.23988 -10.57927 -10.55835
532 11 15 0.50000 9.60582 -8.77436 18.51065
533 11 4 -0.70000 9.80951 -7.64422 19.20065
534 11 12 0.80000 10.25378 -6.53687 18.57465
535 11 1 -0.60000 10.35618 -5.42896 19.12965
536 11 15 0.00000 10.58463 -6.66502 17.18965
537 11 15 0.00000 10.93335 -6.93086 15.73565
538 11 15 0.00000 11.32487 -7.23800 14.30165
539 11 15 0.00000 11.73644 -7.52658 12.86865
540 11 15 0.00000 12.11479 -7.78327 11.41865
541 11 15 0.00000 12.42331 -8.01537 9.94665
542 11 15 0.00000 12.65888 -8.22608 8.45665
543 11 15 0.00000 12.83971 -8.40384 6.95365
544 11 15 0.00000 12.98266 -8.52696 5.43965
545 11 15 0.00000 13.08883 -8.58026 3.91865
546 11 15 0.00000 13.14441 -8.57273 2.39265
547 11 15 0.00000 13.13199 -8.53364 0.86465
548 11 15 0.00000 13.05066 -8.49717 -0.66135
549 11 15 0.00000 12.92114 -8.48048 -2.18535
550 11 16 0.00000 12.77184 -8.47696 -3.71035
551 12 16 0.40000 -4.44125 -21.25348 25.31659
552 12 16 0.40000 -2.71513 -20.06377 24.20659
553 12 16 0.40000 -3.97889 -21.71451 23.02959
554 12 8 -0.50000 -4.05362 -20.64835 24.03059
555 12 15 0.30000 -5.00307 -19.60197 23.64059
556 12 15 0.40000 -5.86224 -18.46880 23.04259
557 12 3 -0.80000 -6.39402 -17.61109 22.15759
558 12 30 1.70000 -6.29662 -18.24816 20.62559
559 12 2 -0.80000 -7.57791 -19.01438 20.40959
560 12 2 -0.80000 -4.97374 -19.00214 20.62859
561 12 3 -0.70000 -6.24938 -16.91282 19.64859
562 12 15 0.40000 -5.82715 -17.04078 18.35859
563 12 14 0.30000 -5.02962 -17.35480 17.16559
564 12 4 -0.70000 -5.48559 -17.33998 15.74559
565 12 12 0.70000 -4.97140 -16.38283 14.82459
566 12 1 -0.70000 -4.43745 -15.34476 15.20559
567 12 15 0.00000 -5.04590 -16.63629 13.26859
568 12 15 0.00000 -4.95272 -16.68866 11.43459
569 12 15 0.00000 -4.83924 -16.71513 9.58859
570 12 15 0.00000 -4.74699 -16.75769 7.73359
571 12 15 0.00000 -4.68830 -16.82168 5.87459
572 12 15 0.00000 -4.66443 -16.90458 4.01559
573 12 15 0.00000 -4.67506 -17.00227 2.16059
574 12 15 0.00000 -4.71765 -17.11350 0.31659
575 12 15 0.00000 -4.79125 -17.22909 -1.50941
576 12 15 0.00000 -4.89552 -17.34494 -3.30641
577 12 15 0.00000 -5.03203 -17.45630 -5.06241
578 12 15 0.00000 -5.20332 -17.56443 -6.75941
579 12 15 0.00000 -5.40905 -17.65257 -8.39441
580 12 15 0.00000 -5.64287 -17.71756 -9.97841
581 12 16 0.00000 -5.89151 -17.76071 -11.52341
582 12 15 0.50000 -4.07437 -18.35882 17.54559
583 12 4 -0.70000 -3.30289 -19.20942 18.23559
584 12 12 0.80000 -2.69617 -20.23678 17.60959
585 12 1 -0.60000 -1.88054 -20.99355 18.16459
586 12 15 0.00000 -2.99949 -20.42086 16.22459
587 12 15 0.00000 -3.42283 -20.53513 14.77059
588 12 15 0.00000 -3.90501 -20.65813 13.33659
589 12 15 0.00000 -4.38470 -20.80834 11.90359
590 12 15 0.00000 -4.81886 -20.95168 10.45359
591 12 15 0.00000 -5.19095 -21.05467 8.98159
592 12 15 0.00000 -5.50160 -21.11287 7.49159
593 12 15 0.00000 -5.75275 -21.14779 5.98859
594 12 15 0.00000 -5.93751 -21.18600 4.47459
595 12 15 0.00000 -6.04449 -21.23765 2.95359
596 12 15 0.00000 -6.07242 -21.28630 1.42759
597 12 15 0.00000 -6.03387 -21.30029 -0.10041
598 12 15 0.00000 -5.95536 -21.25807 -1.62641
599 12 15 0.00000 -5.86315 -21.16560 -3.15041
600 12 16 0.00000 -5.76932 -21.04941 -4.67541
601 13 16 0.40000 -23.32670 -19.45611 26.45696
602 13 16 0.40000 -23.09991 -17.37201 25.34696
603 13 16 0.40000 -22.67560 -19.40720 24.16996
604 13 8 -0.50000 -23.53165 -18.76732 25.17096
605 13 15 0.30000 -24.94414 -18.80265 24.78096
606 13 15 0.40000 -26.36336 -18.71293 24.18296
607 13 3 -0.80000 -27.36016 -18.55527 23.29796
608 13 30 1.70000 -26.81417 -18.89769 21.76596
609 13 2 -0.80000 -27.07104 -20.36834 21.54996
610 13 2 -0.80000 -25.37914 -18.38861 21.76896
611 13 3 -0.70000 -27.79437 -17.98962 20.78896
612 13 15 0.40000 -27.42167 -17.75352 19.49896
613 13 14 0.30000 -26.66292 -17.35480 18.30596
614 13 4 -0.70000 -26.97200 -17.69036 16.88596
615 13 12 0.70000 -27.36082 -16.67579 15.96496
616 13 1 -0.70000 -27.79799 -15.59339 16.34596
617 13 15 0.00000 -27.21757 -16.89777 14.40896
618 13 15 0.00000 -27.11706 -16.86142 12.57496
619 13 15 0.00000 -27.02289 -16.79280 10.72896
620 13 15 0.00000 -26.93040 -16.75075 8.87396
621 13 15 0.00000 -26.84361 -16.74811 7.01496
622 13 15 0.00000 -26.76525 -16.78419 5.15596
623 13 15 0.00000 -26.69822 -16.85606 3.30096
624 13 15 0.00000 -26.64183 -16.96097 1.45696
625 13 15 0.00000 -26.60239 -17.09220 -0.36904
626 13 15 0.00000 -26.58278 -17.24683 -2.16604
627 13 15 0.00000 -26.58765 -17.42293 -3.92204
628 13 15 0.00000 -26.61768 -17.62326 -5.61904
629 13 15 0.00000 -26.68533 -17.83660 -7.25404
630 13 15 0.00000 -26.78886 -18.05609 -8.83804
631 13 16 0.00000 -26.91862 -18.27254 -10.38304
632 13 15 0.50000 -25.27872 -17.28741 18.68596
633 13 4 -0.70000 -24.13073 -17.25893 19.37596
634 13 12 0.80000 -22.95653 -17.47068 18.74996
635 13 1 -0.60000 -21.85073 -17.34748 19.30496
636 13 15 0.00000 -23.01530 -17.82058 17.36496
637 13 15 0.00000 -23.20533 -18.21576 15.91096
638 13 15 0.00000 -23.42717 -18.66119 14.47696
639 13 15 0.00000 -23.62679 -19.12251 13.04396
640 13 15 0.00000 -23.80188 -19.54487 11.59396
641 13 15 0.00000 -23.96697 -19.89387 10.12196
642 13 15 0.00000 -24.12583 -20.16710 8.63196
643 13 15 0.00000 -24.26346 -20.38007 7.12896
644 13 15 0.00000 -24.35521 -20.54492 5.61496
645 13 15 0.00000 -24.38599 -20.65966 4.09396
646 13 15 0.00000 -24.36741 -20.71258 2.56796
647 13 15 0.00000 -24.33163 -20.69253 1.03996
648 13 15 0.00000 -24.31231 -20.60551 -0.48604
649 13 15 0.00000 -24.32209 -20.47529 -2.01004