created with groupy

12032 atoms
9344 bonds
7232 angles
3712 dihedrals
192 impropers

58 atom types
54 bond types
55 angle types
43 dihedral types
3 improper types

-21.540659 21.540659 xlo xhi
-21.540659 21.540659 ylo yhi
-53.208647 53.208647 zlo zhi

Masses

1 15.9994
2 15.9994
3 15.9994
4 15.9994
5 15.9994
6 14.0067
7 14.0067
8 14.0067
9 14.0067
10 14.0067
11 14.0067
12 12.0110
13 12.0110
14 13.0190
15 14.0270
16 15.0350
17 16.0430
18 14.0270
19 13.0190
20 1.0080
21 1.0080
22 999.0   # dummy, this type not in this system
23 32.0600
24 63.5460
25 63.5460
26 55.8470
27 65.3700
28 24.3050
29 40.0800
30 30.9738
31 39.9480
32 18.9984
33 35.4350
34 79.9040
35 15.0350
36 15.9994
37 22.9898
38 35.4350
39 12.0110
40 35.4350
41 1.0080
42 32.0600
43 15.0350
44 15.9994
45 12.0110
46 35.4350
47 18.9984
48 12.0110
49 14.0270
50 15.9994
51 12.0110
52 15.9994
53 14.0067
54 28.0800
55 999.0   # dummy, this type not in this system
56 999.0   # dummy, this type not in this system
57 15.9994
58 1.0080

Atoms

1 1 16 0.40000 21.38306 -15.52813 31.60349
2 1 16 0.40000 19.33647 -14.69947 30.73644
3 1 16 0.40000 21.24767 -14.89136 29.31594
4 1 8 -0.50000 20.51309 -15.52183 30.41465
5 1 15 0.30000 20.08748 -16.88244 30.07398
6 1 15 0.40000 19.51592 -18.21278 29.54167
7 1 3 -0.80000 18.96800 -19.11937 28.71730
8 1 30 1.70000 19.26529 -18.69797 27.13729
9 1 2 -0.80000 20.55948 -19.37528 26.76076
10 1 2 -0.80000 19.20081 -17.17672 27.14823
11 1 3 -0.70000 17.99902 -19.36837 26.30843
12 1 15 0.40000 17.72640 -18.94278 25.04222
13 1 14 0.30000 17.42379 -18.10041 23.87741
14 1 4 -0.70000 17.47905 -18.49439 22.43997
15 1 12 0.70000 16.29088 -18.56820 21.65794
16 1 1 -0.70000 15.18294 -18.66833 22.17784
17 1 15 0.00000 16.35361 -18.49644 20.08255
18 1 15 0.00000 16.12490 -18.38968 18.26286
19 1 15 0.00000 15.86226 -18.27952 16.43524
20 1 15 0.00000 15.62325 -18.17876 14.59566
21 1 15 0.00000 15.41949 -18.09502 12.74772
22 1 15 0.00000 15.25000 -18.03070 10.89557
23 1 15 0.00000 15.11165 -17.98773 9.04363
24 1 15 0.00000 15.00289 -17.96463 7.19913
25 1 15 0.00000 14.91637 -17.96545 5.37004
26 1 15 0.00000 14.84979 -17.99210 3.56772
27 1 15 0.00000 14.80146 -18.04845 1.80447
28 1 15 0.00000 14.77597 -18.13597 0.09785
29 1 15 0.00000 14.75942 -18.26328 -1.54739
30 1 15 0.00000 14.74446 -18.42669 -3.14145
31 1 15 0.00000 14.72373 -18.61427 -4.69551
32 1 15 0.00000 14.71295 -18.71741 -6.38076
33 1 16 0.00000 14.68803 -18.96527 -7.84362
34 1 15 0.50000 17.80952 -16.75742 24.21291
35 1 4 -0.70000 18.20111 -15.65166 24.86001
36 1 12 0.80000 18.66790 -14.59137 24.17199
37 1 1 -0.60000 18.94087 -13.49814 24.69764
38 1 15 0.00000 18.81397 -14.75028 22.75866
39 1 15 0.00000 18.95634 -15.04795 21.27625
40 1 15 0.00000 19.13957 -15.39079 19.80899
41 1 15 0.00000 19.34446 -15.71706 18.34007
42 1 15 0.00000 19.51747 -16.00843 16.85794
43 1 15 0.00000 19.62110 -16.26870 15.36216
44 1 15 0.00000 19.65246 -16.50078 13.85712
45 1 15 0.00000 19.63126 -16.69487 12.34543
46 1 15 0.00000 19.57642 -16.83098 10.82680
47 1 15 0.00000 19.49096 -16.89409 9.30487
48 1 15 0.00000 19.36061 -16.89186 7.78341
49 1 15 0.00000 19.16580 -16.85177 6.26786
50 1 15 0.00000 18.90289 -16.80776 4.76268
51 1 15 0.00000 18.59076 -16.77888 3.26556
52 1 15 0.00000 18.25771 -16.76123 1.77000
53 1 15 0.00000 18.01570 -16.70598 0.26326
54 1 16 0.00000 17.61252 -16.71471 -1.22268
55 2 16 0.40000 22.20171 20.59926 29.86625
56 2 16 0.40000 20.70849 22.18768 28.93125
57 2 16 0.40000 22.32867 21.10844 27.54648
58 2 8 -0.50000 21.40654 20.91968 28.66822
59 2 15 0.30000 20.42760 19.86339 28.39549
60 2 15 0.40000 19.32805 18.88753 27.92801
61 2 3 -0.80000 18.43045 18.26674 27.14657
62 2 30 1.70000 18.86205 18.43197 25.55008
63 2 2 -0.80000 19.72836 17.24034 25.22608
64 2 2 -0.80000 19.46549 19.82814 25.47901
65 2 3 -0.70000 17.42022 18.33558 24.74277
66 2 15 0.40000 17.34429 18.76910 23.45241
67 2 14 0.30000 17.42379 19.59574 22.24069
68 2 4 -0.70000 17.28470 19.14082 20.82710
69 2 12 0.70000 16.17314 19.54927 20.03567
70 2 1 -0.70000 15.13830 19.96870 20.54659
71 2 15 0.00000 16.24157 19.50242 18.45958
72 2 15 0.00000 16.05981 19.60068 16.63412
73 2 15 0.00000 15.84887 19.71634 14.80016
74 2 15 0.00000 15.65497 19.81263 12.95504
75 2 15 0.00000 15.48531 19.87786 11.10291
76 2 15 0.00000 15.33802 19.91049 9.24803
77 2 15 0.00000 15.20949 19.91041 7.39488
78 2 15 0.00000 15.09906 19.88000 5.55060
79 2 15 0.00000 14.99844 19.81924 3.72324
80 2 15 0.00000 14.90487 19.72801 1.92423
81 2 15 0.00000 14.81530 19.60424 0.16604
82 2 15 0.00000 14.73344 19.44554 -1.53365
83 2 15 0.00000 14.64308 19.25047 -3.16984
84 2 15 0.00000 14.53909 19.02498 -4.75296
85 2 15 0.00000 14.41988 18.78241 -6.29493
86 2 15 0.00000 14.34474 18.60442 -7.97227
87 2 16 0.00000 14.19666 18.31435 -9.42002
88 2 15 0.50000 18.35909 20.65325 22.50870
89 2 4 -0.70000 19.20036 21.51160 23.10059
90 2 12 0.80000 20.07323 22.22510 22.36271
91 2 1 -0.60000 20.80075 23.11726 22.83255
92 2 15 0.00000 20.11841 21.94329 20.96176
93 2 15 0.00000 20.09908 21.53467 19.49922
94 2 15 0.00000 20.09708 21.06848 18.05469
95 2 15 0.00000 20.12179 20.60769 16.60790
96 2 15 0.00000 20.13279 20.19143 15.14566
97 2 15 0.00000 20.09467 19.83255 13.66728
98 2 15 0.00000 20.00362 19.52994 12.17727
99 2 15 0.00000 19.88167 19.28398 10.67796
100 2 15 0.00000 19.75456 19.10440 9.16820
101 2 15 0.00000 19.63156 19.00358 7.65088
102 2 15 0.00000 19.49657 18.98104 6.12999
103 2 15 0.00000 19.32005 19.02087 4.61219
104 2 15 0.00000 19.08405 19.09439 3.10371
105 2 15 0.00000 18.79724 19.17613 1.60348
106 2 15 0.00000 18.48674 19.25695 0.10515
107 2 15 0.00000 18.27443 19.33140 -1.40523
108 2 16 0.00000 17.88942 19.41952 -2.89340
109 3 16 0.40000 16.24217 -15.84536 30.05088
110 3 16 0.40000 14.28913 -14.82516 29.17235
111 3 16 0.40000 16.17031 -15.22658 27.75553
112 3 8 -0.50000 15.37653 -15.76601 28.86151
113 3 15 0.30000 14.81554 -17.08083 28.53746
114 3 15 0.40000 14.11227 -18.35318 28.02132
115 3 3 -0.80000 13.47513 -19.20997 27.20790
116 3 30 1.70000 13.81244 -18.84035 25.62298
117 3 2 -0.80000 15.03142 -19.64945 25.25569
118 3 2 -0.80000 13.90186 -17.32035 25.61503
119 3 3 -0.70000 12.48445 -19.38973 24.80170
120 3 15 0.40000 12.25539 -18.95452 23.53014
121 3 14 0.30000 12.03863 -18.10041 22.35480
122 3 4 -0.70000 12.05293 -18.51574 20.92237
123 3 12 0.70000 10.86289 -18.47893 20.14058
124 3 1 -0.70000 9.75083 -18.46025 20.66098
125 3 15 0.00000 10.93156 -18.43340 18.56446
126 3 15 0.00000 10.71365 -18.32666 16.74344
127 3 15 0.00000 10.46233 -18.21320 14.91444
128 3 15 0.00000 10.23355 -18.11164 13.07360
129 3 15 0.00000 10.03812 -18.03067 11.22463
130 3 15 0.00000 9.87483 -17.97254 9.37172
131 3 15 0.00000 9.74036 -17.93878 7.51930
132 3 15 0.00000 9.63334 -17.92767 5.67459
133 3 15 0.00000 9.54603 -17.94242 3.84560
134 3 15 0.00000 9.47597 -17.98456 2.04371
135 3 15 0.00000 9.42109 -18.05760 0.28126
136 3 15 0.00000 9.38583 -18.16324 -1.42415
137 3 15 0.00000 9.35547 -18.30861 -3.06771
138 3 15 0.00000 9.32311 -18.48942 -4.65963
139 3 15 0.00000 9.28257 -18.69319 -6.21125
140 3 15 0.00000 9.26037 -18.81560 -7.89510
141 3 16 0.00000 9.20965 -19.07778 -9.35480
142 3 15 0.50000 12.55816 -16.79917 22.67386
143 3 4 -0.70000 13.05977 -15.73064 23.30745
144 3 12 0.80000 13.63077 -14.73149 22.60664
145 3 1 -0.60000 14.01303 -13.66497 23.11887
146 3 15 0.00000 13.75917 -14.92184 21.19547
147 3 15 0.00000 13.86984 -15.25071 19.71696
148 3 15 0.00000 14.01660 -15.62846 18.25418
149 3 15 0.00000 14.18659 -15.99192 16.78954
150 3 15 0.00000 14.32837 -16.31761 15.31124
151 3 15 0.00000 14.40427 -16.60554 13.81887
152 3 15 0.00000 14.41110 -16.85823 12.31684
153 3 15 0.00000 14.36946 -17.06791 10.80767
154 3 15 0.00000 14.30021 -17.21660 9.29080
155 3 15 0.00000 14.20786 -17.28962 7.76972
156 3 15 0.00000 14.07745 -17.29310 6.24827
157 3 15 0.00000 13.88673 -17.25234 4.73221
158 3 15 0.00000 13.62866 -17.20067 3.22644
159 3 15 0.00000 13.32010 -17.15899 1.72888
160 3 15 0.00000 12.98960 -17.12635 0.23301
161 3 15 0.00000 12.75346 -17.06563 -1.27445
162 3 16 0.00000 12.35053 -17.05204 -2.76042
163 4 16 0.40000 20.43673 -16.09248 29.66433
164 4 16 0.40000 21.43281 -14.33304 28.42369
165 4 16 0.40000 20.75705 -16.34162 27.32082
166 4 8 -0.50000 20.40578 -15.38510 28.37247
167 4 15 0.30000 19.09030 -14.78141 28.14106
168 4 15 0.40000 17.79933 -14.06300 27.69708
169 4 3 -0.80000 16.87819 -13.47389 26.91854
170 4 30 1.70000 17.02265 -14.02527 25.35730
171 4 2 -0.80000 16.11214 -15.22328 25.25147
172 4 2 -0.80000 18.52242 -14.21597 25.17617
173 4 3 -0.70000 16.43999 -12.77339 24.44450
174 4 15 0.40000 16.71857 -12.73014 23.11061
175 4 14 0.30000 17.42379 -12.71525 21.82206
176 4 4 -0.70000 16.82695 -12.87595 20.46468
177 4 12 0.70000 16.82291 -11.79491 19.53726
178 4 1 -0.70000 16.96495 -10.63155 19.90368
179 4 15 0.00000 16.66118 -12.05760 17.98943
180 4 15 0.00000 16.54300 -12.07034 16.15617
181 4 15 0.00000 16.43214 -12.05140 14.30992
182 4 15 0.00000 16.30684 -12.05544 12.45637
183 4 15 0.00000 16.15840 -12.09212 10.60164
184 4 15 0.00000 15.98521 -12.15959 8.74994
185 4 15 0.00000 15.78648 -12.25392 6.90541
186 4 15 0.00000 15.56491 -12.37298 5.07477
187 4 15 0.00000 15.31877 -12.50793 3.26528
188 4 15 0.00000 15.04812 -12.65485 1.48801
189 4 15 0.00000 14.75120 -12.80996 -0.24472
190 4 15 0.00000 14.42834 -12.97538 -1.91482
191 4 15 0.00000 14.07388 -13.13549 -3.51857
192 4 15 0.00000 13.69108 -13.28498 -5.06747
193 4 15 0.00000 13.29114 -13.41994 -6.57497
194 4 15 0.00000 12.95381 -13.59457 -8.22012
195 4 16 0.00000 12.50841 -13.70438 -9.63136
196 4 15 0.50000 18.72728 -13.27758 22.04486
197 4 4 -0.70000 19.84178 -13.76844 22.60320
198 4 12 0.80000 20.71191 -14.48565 21.86566
199 4 1 -0.60000 21.81483 -14.87293 22.28941
200 4 15 0.00000 20.33482 -14.77174 20.51656
201 4 15 0.00000 19.81277 -15.03923 19.11574
202 4 15 0.00000 19.24250 -15.33730 17.74099
203 4 15 0.00000 18.68497 -15.65956 16.36569
204 4 15 0.00000 18.16452 -15.95805 14.96870
205 4 15 0.00000 17.68298 -16.19552 13.54477
206 4 15 0.00000 17.23860 -16.36811 12.09815
207 4 15 0.00000 16.83836 -16.49643 10.63300
208 4 15 0.00000 16.49892 -16.60240 9.14931
209 4 15 0.00000 16.23505 -16.69104 7.64929
210 4 15 0.00000 16.04193 -16.74667 6.13554
211 4 15 0.00000 15.89638 -16.74485 4.61394
212 4 15 0.00000 15.76638 -16.67581 3.09244
213 4 15 0.00000 15.63011 -16.55511 1.57373
214 4 15 0.00000 15.48620 -16.41187 0.05494
215 4 15 0.00000 15.36383 -16.36535 -1.46648
216 4 16 0.00000 15.20603 -16.14791 -2.98255
217 5 16 0.40000 10.56882 0.81745 29.50748
218 5 16 0.40000 10.99674 2.83560 28.33660
219 5 16 0.40000 10.93551 0.75830 27.15828
220 5 8 -0.50000 10.32422 1.53061 28.24186
221 5 15 0.30000 8.88815 1.72873 28.02526
222 5 15 0.40000 7.44060 2.05131 27.60050
223 5 3 -0.80000 6.38274 2.37122 26.83874
224 5 30 1.70000 6.67448 1.94344 25.25942
225 5 2 -0.80000 6.15594 0.53529 25.10546
226 5 2 -0.80000 8.16301 2.20885 25.07967
227 5 3 -0.70000 5.74451 3.00074 24.38927
228 5 15 0.40000 5.99080 3.17213 23.05934
229 5 14 0.30000 6.65346 3.44025 21.77601
230 5 4 -0.70000 6.12290 3.16027 20.41050
231 5 12 0.70000 5.79612 4.22507 19.52270
232 5 1 -0.70000 5.59178 5.36474 19.93165
233 5 15 0.00000 5.71038 3.98250 17.96554
234 5 15 0.00000 5.59122 4.00177 16.13240
235 5 15 0.00000 5.46967 4.05392 14.28746
236 5 15 0.00000 5.34103 4.08014 12.43433
237 5 15 0.00000 5.19987 4.06843 10.57870
238 5 15 0.00000 5.04412 4.01991 8.72486
239 5 15 0.00000 4.87190 3.93798 6.87708
240 5 15 0.00000 4.68520 3.82520 5.04215
241 5 15 0.00000 4.47980 3.68926 3.22766
242 5 15 0.00000 4.25468 3.53352 1.44481
243 5 15 0.00000 4.00709 3.36063 -0.29398
244 5 15 0.00000 3.73808 3.16800 -1.97069
245 5 15 0.00000 3.43767 2.96874 -3.58109
246 5 15 0.00000 3.10734 2.76933 -5.13642
247 5 15 0.00000 2.75660 2.57725 -6.64996
248 5 15 0.00000 2.47660 2.37067 -8.30215
249 5 16 0.00000 2.07552 2.18577 -9.71883
250 5 15 0.50000 8.06587 3.27841 21.98545
251 5 4 -0.70000 9.27845 3.11715 22.53174
252 5 12 0.80000 10.31698 2.71463 21.77352
253 5 1 -0.60000 11.48731 2.65375 22.18899
254 5 15 0.00000 10.03338 2.37921 20.41295
255 5 15 0.00000 9.60546 2.02079 19.00057
256 5 15 0.00000 9.14060 1.61805 17.61288
257 5 15 0.00000 8.69502 1.19597 16.22383
258 5 15 0.00000 8.27777 0.80828 14.81417
259 5 15 0.00000 7.87963 0.49129 13.38000
260 5 15 0.00000 7.49779 0.24800 11.92569
261 5 15 0.00000 7.14503 0.06065 10.45472
262 5 15 0.00000 6.84371 -0.08681 8.96635
263 5 15 0.00000 6.60942 -0.19491 7.46269
264 5 15 0.00000 6.43299 -0.25017 5.94690
265 5 15 0.00000 6.28508 -0.23629 4.42558
266 5 15 0.00000 6.13226 -0.15365 2.90688
267 5 15 0.00000 5.95827 -0.02360 1.39280
268 5 15 0.00000 5.77037 0.12573 -0.12058
269 5 15 0.00000 5.63147 0.18911 -1.63998
270 5 16 0.00000 5.40847 0.40512 -3.14804
271 6 16 0.40000 -13.03154 -14.25449 30.06214
272 6 16 0.40000 -15.19207 -14.73552 29.20909
273 6 16 0.40000 -13.57149 -13.65695 27.82427
274 6 8 -0.50000 -13.76498 -14.67736 28.85654
275 6 15 0.30000 -13.31203 -15.99725 28.40800
276 6 15 0.40000 -12.99922 -17.36518 27.76710
277 6 3 -0.80000 -12.92475 -18.35752 26.86631
278 6 30 1.70000 -12.97171 -17.72860 25.32857
279 6 2 -0.80000 -11.53686 -17.48045 24.93477
280 6 2 -0.80000 -13.92259 -16.54541 25.44835
281 6 3 -0.70000 -13.61614 -18.95547 24.42336
282 6 15 0.40000 -14.11762 -18.68280 23.18524
283 6 14 0.30000 -14.88720 -18.10041 22.07778
284 6 4 -0.70000 -14.64397 -18.27993 20.61725
285 6 12 0.70000 -15.57694 -18.98476 19.80389
286 6 1 -0.70000 -16.39870 -19.75779 20.28865
287 6 15 0.00000 -15.60625 -18.77570 18.23980
288 6 15 0.00000 -15.89703 -18.69305 16.42773
289 6 15 0.00000 -16.21738 -18.62715 14.60720
290 6 15 0.00000 -16.51340 -18.55398 12.77462
291 6 15 0.00000 -16.77114 -18.47303 10.93330
292 6 15 0.00000 -16.98986 -18.38712 9.08720
293 6 15 0.00000 -17.17086 -18.29997 7.24049
294 6 15 0.00000 -17.31608 -18.21183 5.40047
295 6 15 0.00000 -17.42887 -18.13089 3.57461
296 6 15 0.00000 -17.50966 -18.06085 1.77404
297 6 15 0.00000 -17.55726 -18.00672 0.01069
298 6 15 0.00000 -17.56668 -17.96824 -1.69790
299 6 15 0.00000 -17.54392 -17.96090 -3.34797
300 6 15 0.00000 -17.49730 -17.98533 -4.94959
301 6 15 0.00000 -17.44011 -18.03550 -6.51321
302 6 15 0.00000 -17.42793 -18.00242 -8.20128
303 6 16 0.00000 -17.33632 -18.11010 -9.67846
304 6 15 0.50000 -15.36200 -16.81787 22.51893
305 6 4 -0.70000 -15.68445 -15.74506 23.25370
306 6 12 0.80000 -15.95116 -14.56744 22.65575
307 6 1 -0.60000 -16.36474 -13.56599 23.26570
308 6 15 0.00000 -15.77308 -14.50619 21.23848
309 6 15 0.00000 -15.51760 -14.55359 19.74220
310 6 15 0.00000 -15.20214 -14.61424 18.25869
311 6 15 0.00000 -14.87903 -14.64863 16.77526
312 6 15 0.00000 -14.60258 -14.67289 15.28043
313 6 15 0.00000 -14.40076 -14.71217 13.77259
314 6 15 0.00000 -14.27410 -14.77085 12.25585
315 6 15 0.00000 -14.21244 -14.82960 10.73399
316 6 15 0.00000 -14.21233 -14.86114 9.20861
317 6 15 0.00000 -14.28013 -14.85191 7.68451
318 6 15 0.00000 -14.42273 -14.81674 6.16456
319 6 15 0.00000 -14.63955 -14.78969 4.65171
320 6 15 0.00000 -14.91335 -14.80049 3.14786
321 6 15 0.00000 -15.21769 -14.85313 1.64979
322 6 15 0.00000 -15.53222 -14.92727 0.15196
323 6 15 0.00000 -15.79584 -14.91658 -1.35213
324 6 16 0.00000 -16.15110 -15.05405 -2.84395
325 7 16 0.40000 0.76897 20.00325 29.68579
326 7 16 0.40000 -0.46669 21.78252 28.71917
327 7 16 0.40000 0.96857 20.44381 27.35710
328 7 8 -0.50000 0.03006 20.41844 28.48086
329 7 15 0.30000 -1.09851 19.51838 28.22650
330 7 15 0.40000 -2.33433 18.71251 27.77575
331 7 3 -0.80000 -3.31699 18.22095 27.00476
332 7 30 1.70000 -2.86758 18.28880 25.40607
333 7 2 -0.80000 -2.19300 16.97345 25.10562
334 7 2 -0.80000 -2.05895 19.57540 25.30981
335 7 3 -0.70000 -4.30844 18.39771 24.59865
336 7 15 0.40000 -4.31941 18.81357 23.30031
337 7 14 0.30000 -4.11687 19.59574 22.07348
338 7 4 -0.70000 -4.32554 19.14094 20.66844
339 7 12 0.70000 -5.36319 19.69883 19.86793
340 7 1 -0.70000 -6.32149 20.28020 20.36945
341 7 15 0.00000 -5.30493 19.61269 18.29309
342 7 15 0.00000 -5.47224 19.70335 16.46586
343 7 15 0.00000 -5.66576 19.81548 14.62976
344 7 15 0.00000 -5.84540 19.90567 12.78288
345 7 15 0.00000 -6.00581 19.96134 10.92962
346 7 15 0.00000 -6.14908 19.98135 9.07425
347 7 15 0.00000 -6.27877 19.96622 7.22124
348 7 15 0.00000 -6.39517 19.91853 5.37769
349 7 15 0.00000 -6.50647 19.83967 3.55164
350 7 15 0.00000 -6.61539 19.73016 1.75452
351 7 15 0.00000 -6.72525 19.58864 -0.00118
352 7 15 0.00000 -6.83272 19.41253 -1.69773
353 7 15 0.00000 -6.95403 19.20295 -3.33011
354 7 15 0.00000 -7.09335 18.96638 -4.90890
355 7 15 0.00000 -7.25027 18.71601 -6.44624
356 7 15 0.00000 -7.35400 18.52023 -8.12007
357 7 16 0.00000 -7.54652 18.22906 -9.56236
358 7 15 0.50000 -3.03125 20.50355 22.32304
359 7 4 -0.70000 -2.06841 21.23489 22.90000
360 7 12 0.80000 -1.09824 21.79346 22.15017
361 7 1 -0.60000 -0.24286 22.57324 22.60431
362 7 15 0.00000 -1.09845 21.48196 20.75480
363 7 15 0.00000 -1.18177 21.05379 19.30011
364 7 15 0.00000 -1.25670 20.56644 17.86454
365 7 15 0.00000 -1.30442 20.08032 16.42664
366 7 15 0.00000 -1.35893 19.64000 14.97244
367 7 15 0.00000 -1.45329 19.26355 13.50097
368 7 15 0.00000 -1.59142 18.95054 12.01674
369 7 15 0.00000 -1.75149 18.69804 10.52211
370 7 15 0.00000 -1.90659 18.51171 9.01578
371 7 15 0.00000 -2.04565 18.40245 7.50044
372 7 15 0.00000 -2.18467 18.37231 5.98005
373 7 15 0.00000 -2.35525 18.41017 4.46152
374 7 15 0.00000 -2.57948 18.49055 2.95159
375 7 15 0.00000 -2.85266 18.58693 1.44969
376 7 15 0.00000 -3.14940 18.68604 -0.05033
377 7 15 0.00000 -3.35009 18.76369 -1.56214
378 7 16 0.00000 -3.71934 18.88153 -3.05225
379 8 16 0.40000 -17.21414 21.68267 32.27996
380 8 16 0.40000 -17.56561 19.59762 31.20478
381 8 16 0.40000 -18.13889 21.63096 30.08933
382 8 8 -0.50000 -17.16450 20.99478 30.97821
383 8 15 0.30000 -15.81024 21.03619 30.41900
384 8 15 0.40000 -14.47410 20.95258 29.65245
385 8 3 -0.80000 -13.59192 20.79920 28.65248
386 8 30 1.70000 -14.32200 21.13927 27.19862
387 8 2 -0.80000 -14.09966 22.61102 26.95370
388 8 2 -0.80000 -15.74378 20.62402 27.37622
389 8 3 -0.70000 -13.46431 20.23543 26.10897
390 8 15 0.40000 -13.99043 19.99773 24.87389
391 8 14 0.30000 -14.88720 19.59574 23.78204
392 8 4 -0.70000 -14.75491 19.93263 22.33513
393 8 12 0.70000 -14.47691 18.91974 21.37308
394 8 1 -0.70000 -13.99194 17.83924 21.69739
395 8 15 0.00000 -14.80966 19.14111 19.84625
396 8 15 0.00000 -15.13278 19.10433 18.03815
397 8 15 0.00000 -15.45092 19.03530 16.21735
398 8 15 0.00000 -15.76861 18.99285 14.38743
399 8 15 0.00000 -16.08130 18.98984 12.55286
400 8 15 0.00000 -16.38578 19.02559 10.71728
401 8 15 0.00000 -16.67868 19.09716 8.88432
402 8 15 0.00000 -16.95983 19.20183 7.06099
403 8 15 0.00000 -17.22207 19.33289 5.25348
404 8 15 0.00000 -17.46119 19.48743 3.47234
405 8 15 0.00000 -17.67112 19.66355 1.72893
406 8 15 0.00000 -17.84898 19.86401 0.04102
407 8 15 0.00000 -17.98200 20.07764 -1.58992
408 8 15 0.00000 -18.07322 20.29758 -3.17462
409 8 15 0.00000 -18.13364 20.51457 -4.72380
410 8 15 0.00000 -18.29745 20.73113 -6.39026
411 8 16 0.00000 -18.28529 20.95151 -7.85768
412 8 15 0.50000 -16.21447 19.52240 24.32786
413 8 4 -0.70000 -17.26969 19.48898 25.15260
414 8 12 0.80000 -18.51232 19.69567 24.67448
415 8 1 -0.60000 -19.54170 19.56771 25.36004
416 8 15 0.00000 -18.62427 20.04583 23.29282
417 8 15 0.00000 -18.61455 20.44182 21.82671
418 8 15 0.00000 -18.57102 20.88820 20.37660
419 8 15 0.00000 -18.54950 21.35037 18.93019
420 8 15 0.00000 -18.55423 21.77348 17.46989
421 8 15 0.00000 -18.57126 22.12319 15.98892
422 8 15 0.00000 -18.59633 22.39710 14.49081
423 8 15 0.00000 -18.64382 22.61066 12.98235
424 8 15 0.00000 -18.73796 22.77590 11.46854
425 8 15 0.00000 -18.89326 22.89078 9.95519
426 8 15 0.00000 -19.09791 22.94362 8.44286
427 8 15 0.00000 -19.31955 22.92341 6.93060
428 8 15 0.00000 -19.52433 22.83631 5.41828
429 8 15 0.00000 -19.69979 22.70613 3.90438
430 8 15 0.00000 -19.85854 22.55930 2.38742
431 8 15 0.00000 -20.08002 22.48884 0.87816
432 8 16 0.00000 -20.19274 22.28229 -0.64344
433 9 16 0.40000 -5.84237 5.93932 31.53775
434 9 16 0.40000 -5.22997 7.89571 30.34422
435 9 16 0.40000 -5.48398 5.81975 29.18957
436 9 8 -0.50000 -6.02053 6.65763 30.26397
437 9 15 0.30000 -7.43219 6.98545 30.04437
438 9 15 0.40000 -8.84385 7.43586 29.61521
439 9 3 -0.80000 -9.86794 7.84371 28.84930
440 9 30 1.70000 -9.61791 7.37280 27.27510
441 9 2 -0.80000 -10.26474 6.01709 27.13690
442 9 2 -0.80000 -8.11129 7.49714 27.09313
443 9 3 -0.70000 -10.44641 8.50173 26.39249
444 9 15 0.40000 -10.18600 8.63444 25.06082
445 9 14 0.30000 -9.50203 8.82541 23.77489
446 9 4 -0.70000 -10.05697 8.58027 22.41236
447 9 12 0.70000 -10.28419 9.66060 21.51234
448 9 1 -0.70000 -10.38187 10.81887 21.90820
449 9 15 0.00000 -10.39285 9.40932 19.95800
450 9 15 0.00000 -10.51067 9.41869 18.12469
451 9 15 0.00000 -10.62784 9.46089 16.27922
452 9 15 0.00000 -10.75448 9.47784 14.42583
453 9 15 0.00000 -10.89710 9.45814 12.57038
454 9 15 0.00000 -11.05765 9.40318 10.71714
455 9 15 0.00000 -11.23770 9.31654 8.87031
456 9 15 0.00000 -11.43500 9.20069 7.03669
457 9 15 0.00000 -11.65307 9.06373 5.22375
458 9 15 0.00000 -11.89259 8.90924 3.44267
459 9 15 0.00000 -12.15606 8.74026 1.70583
460 9 15 0.00000 -12.44263 8.55432 0.03127
461 9 15 0.00000 -12.76106 8.36544 -1.57691
462 9 15 0.00000 -13.10926 8.17981 -3.13005
463 9 15 0.00000 -13.47709 8.00384 -4.64149
464 9 15 0.00000 -13.77589 7.80531 -6.29137
465 9 16 0.00000 -14.19311 7.64225 -7.70607
466 9 15 0.50000 -8.11058 8.53583 23.98689
467 9 4 -0.70000 -6.91785 8.26917 24.53562
468 9 12 0.80000 -5.92147 7.76359 23.78258
469 9 1 -0.60000 -4.76160 7.59930 24.19934
470 9 15 0.00000 -6.23565 7.44043 22.42576
471 9 15 0.00000 -6.69567 7.10715 21.01732
472 9 15 0.00000 -7.19657 6.73344 19.63405
473 9 15 0.00000 -7.68006 6.33868 18.24966
474 9 15 0.00000 -8.13218 5.97530 16.84428
475 9 15 0.00000 -8.55873 5.68026 15.41360
476 9 15 0.00000 -8.96222 5.45686 13.96195
477 9 15 0.00000 -9.33160 5.28627 12.49302
478 9 15 0.00000 -9.64607 5.15044 11.00626
479 9 15 0.00000 -9.89015 5.04741 9.50381
480 9 15 0.00000 -10.07175 4.99150 7.98865
481 9 15 0.00000 -10.21854 5.00171 6.46720
482 9 15 0.00000 -10.36385 5.08088 4.94758
483 9 15 0.00000 -10.52584 5.20926 3.43202
484 9 15 0.00000 -10.69990 5.35813 1.91694
485 9 15 0.00000 -10.83314 5.41681 0.39685
486 9 16 0.00000 -11.03596 5.63539 -1.11369
487 10 16 0.40000 -21.01780 -3.79781 32.10371
488 10 16 0.40000 -22.42341 -5.45818 31.15796
489 10 16 0.40000 -21.87333 -3.50017 29.90458
490 10 8 -0.50000 -21.35727 -4.49246 30.84973
491 10 15 0.30000 -20.19008 -5.19856 30.31349
492 10 15 0.40000 -19.10723 -6.01490 29.57804
493 10 3 -0.80000 -18.45232 -6.66903 28.60598
494 10 30 1.70000 -18.92434 -6.09221 27.12043
495 10 2 -0.80000 -17.97223 -4.97104 26.78591
496 10 2 -0.80000 -20.40289 -5.77865 27.30500
497 10 3 -0.70000 -18.68294 -7.37808 26.10646
498 10 15 0.40000 -19.27800 -7.38530 24.87983
499 10 14 0.30000 -20.27236 -7.33008 23.79997
500 10 4 -0.70000 -20.01001 -7.20482 22.33709
501 10 12 0.70000 -20.31780 -8.27333 21.44697
502 10 1 -0.70000 -20.46106 -9.42492 21.84842
503 10 15 0.00000 -20.51392 -8.00922 19.90336
504 10 15 0.00000 -20.84138 -7.98785 18.09579
505 10 15 0.00000 -21.18162 -7.99732 16.27771
506 10 15 0.00000 -21.50778 -7.98500 14.44882
507 10 15 0.00000 -21.80922 -7.94201 12.61288
508 10 15 0.00000 -22.08348 -7.87037 10.77359
509 10 15 0.00000 -22.32914 -7.77411 8.93482
510 10 15 0.00000 -22.54736 -7.65518 7.10377
511 10 15 0.00000 -22.73541 -7.52263 5.28714
512 10 15 0.00000 -22.89101 -7.38045 3.49576
513 10 15 0.00000 -23.00979 -7.23270 1.74115
514 10 15 0.00000 -23.08752 -7.07739 0.04095
515 10 15 0.00000 -23.11910 -6.93059 -1.60245
516 10 15 0.00000 -23.11089 -6.79724 -3.19935
517 10 15 0.00000 -23.07729 -6.68016 -4.76008
518 10 15 0.00000 -23.13425 -6.51709 -6.43966
519 10 16 0.00000 -23.03547 -6.42973 -7.91771
520 10 15 0.50000 -21.43340 -6.66608 24.32538
521 10 4 -0.70000 -22.33644 -6.09199 25.13144
522 10 12 0.80000 -23.29778 -5.29923 24.61878
523 10 1 -0.60000 -24.23054 -4.82798 25.29247
524 10 15 0.00000 -23.23576 -5.03126 23.21576
525 10 15 0.00000 -23.04755 -4.79307 21.72773
526 10 15 0.00000 -22.80395 -4.52857 20.25305
527 10 15 0.00000 -22.57083 -4.23893 18.78067
528 10 15 0.00000 -22.38072 -3.96975 17.29643
529 10 15 0.00000 -22.23972 -3.75796 15.79607
530 10 15 0.00000 -22.14538 -3.60759 14.28329
531 10 15 0.00000 -22.10179 -3.49758 12.76365
532 10 15 0.00000 -22.12329 -3.40472 11.24092
533 10 15 0.00000 -22.22322 -3.32285 9.72077
534 10 15 0.00000 -22.39756 -3.26800 8.20472
535 10 15 0.00000 -22.62445 -3.26646 6.69310
536 10 15 0.00000 -22.87181 -3.33065 5.18601
537 10 15 0.00000 -23.11662 -3.44688 3.68063
538 10 15 0.00000 -23.35590 -3.58619 2.17356
539 10 15 0.00000 -23.60879 -3.62732 0.66815
540 10 16 0.00000 -23.84000 -3.84173 -0.83890
541 11 16 0.40000 10.35758 -4.48634 30.37032
542 11 16 0.40000 8.24168 -3.84379 29.51179
543 11 16 0.40000 10.16168 -3.83876 28.09020
544 11 8 -0.50000 9.49022 -4.54813 29.18116
545 11 15 0.30000 9.19423 -5.93871 28.82458
546 11 15 0.40000 8.74996 -7.31065 28.27663
547 11 3 -0.80000 8.28925 -8.25515 27.44156
548 11 30 1.70000 8.54475 -7.78947 25.86668
549 11 2 -0.80000 9.89668 -8.33772 25.48306
550 11 2 -0.80000 8.33755 -6.28124 25.89514
551 11 3 -0.70000 7.34666 -8.56633 25.02945
552 11 15 0.40000 7.03455 -8.15366 23.76809
553 11 14 0.30000 6.65346 -7.33008 22.61292
554 11 4 -0.70000 6.74473 -7.70050 21.17105
555 11 12 0.70000 5.56833 -7.87665 20.38757
556 11 1 -0.70000 4.47500 -8.08649 20.90568
557 11 15 0.00000 5.62319 -7.78113 18.81315
558 11 15 0.00000 5.38447 -7.67535 16.99469
559 11 15 0.00000 5.11164 -7.56927 15.16833
560 11 15 0.00000 4.86321 -7.47021 13.32990
561 11 15 0.00000 4.65147 -7.38467 11.48294
562 11 15 0.00000 4.47568 -7.31520 9.63156
563 11 15 0.00000 4.33290 -7.26405 7.78016
564 11 15 0.00000 4.22145 -7.22998 5.93600
565 11 15 0.00000 4.13439 -7.21781 4.10697
566 11 15 0.00000 4.06963 -7.22981 2.30443
567 11 15 0.00000 4.02586 -7.27010 0.54062
568 11 15 0.00000 4.00778 -7.33992 -1.16691
569 11 15 0.00000 4.00237 -7.44922 -2.81352
570 11 15 0.00000 4.00198 -7.59490 -4.40937
571 11 15 0.00000 3.99813 -7.76565 -5.96550
572 11 15 0.00000 3.99617 -7.84989 -7.65183
573 11 16 0.00000 3.99387 -8.08209 -9.11747
574 11 15 0.50000 6.91141 -5.96074 22.96410
575 11 4 -0.70000 7.19767 -4.83060 23.62413
576 11 12 0.80000 7.56234 -3.72326 22.94866
577 11 1 -0.60000 7.73162 -2.61535 23.48704
578 11 15 0.00000 7.72194 -3.85141 21.53366
579 11 15 0.00000 7.89086 -4.11725 20.04800
580 11 15 0.00000 8.10470 -4.42439 18.57697
581 11 15 0.00000 8.33856 -4.71297 17.10450
582 11 15 0.00000 8.53738 -4.96965 15.61920
583 11 15 0.00000 8.66421 -5.20175 14.12057
584 11 15 0.00000 8.71644 -5.41247 12.61297
585 11 15 0.00000 8.71275 -5.59023 11.09913
586 11 15 0.00000 8.67013 -5.71335 9.57900
587 11 15 0.00000 8.59015 -5.76665 8.05639
588 11 15 0.00000 8.45934 -5.75912 6.53499
589 11 15 0.00000 8.26080 -5.72003 5.01990
590 11 15 0.00000 7.99409 -5.68355 3.51518
591 11 15 0.00000 7.67981 -5.66687 2.01833
592 11 15 0.00000 7.34577 -5.66335 0.52289
593 11 15 0.00000 7.09882 -5.61370 -0.98324
594 11 16 0.00000 6.69744 -5.64315 -2.46940
595 12 16 0.40000 -2.53953 -16.61393 29.66640
596 12 16 0.40000 -0.96155 -15.42421 28.35431
597 12 16 0.40000 -2.35933 -17.07495 27.34010
598 12 8 -0.50000 -2.31151 -16.00880 28.34274
599 12 15 0.30000 -3.30141 -14.96242 28.07136
600 12 15 0.40000 -4.22706 -13.82925 27.58252
601 12 3 -0.80000 -4.86273 -12.97153 26.76893
602 12 30 1.70000 -4.95276 -13.60861 25.23648
603 12 2 -0.80000 -6.25082 -14.37483 25.17824
604 12 2 -0.80000 -3.63938 -14.36259 25.07824
605 12 3 -0.70000 -5.02494 -12.27327 24.26100
606 12 15 0.40000 -4.76307 -12.40123 22.92916
607 12 14 0.30000 -4.11687 -12.71525 21.64786
608 12 4 -0.70000 -4.74250 -12.70043 20.29401
609 12 12 0.70000 -4.34439 -11.74327 19.31721
610 12 1 -0.70000 -3.76798 -10.70521 19.63030
611 12 15 0.00000 -4.60796 -11.99674 17.78189
612 12 15 0.00000 -4.73898 -12.04910 15.95021
613 12 15 0.00000 -4.85132 -12.07558 14.10414
614 12 15 0.00000 -4.98582 -12.11813 12.25172
615 12 15 0.00000 -5.15412 -12.18213 10.39942
616 12 15 0.00000 -5.35699 -12.26503 8.55137
617 12 15 0.00000 -5.59360 -12.36272 6.71149
618 12 15 0.00000 -5.86061 -12.47395 4.88643
619 12 15 0.00000 -6.15619 -12.58954 3.08301
620 12 15 0.00000 -6.47868 -12.70539 1.31211
621 12 15 0.00000 -6.82818 -12.81675 -0.41416
622 12 15 0.00000 -7.20501 -12.92488 -2.07764
623 12 15 0.00000 -7.60845 -13.01301 -3.67538
624 12 15 0.00000 -8.03357 -13.07801 -5.21908
625 12 15 0.00000 -8.46865 -13.12116 -6.72226
626 12 15 0.00000 -8.86213 -13.23113 -8.36052
627 12 16 0.00000 -9.32884 -13.22929 -9.76914
628 12 15 0.50000 -3.12243 -13.71927 21.90861
629 12 4 -0.70000 -2.27261 -14.56987 22.49945
630 12 12 0.80000 -1.74671 -15.59723 21.80417
631 12 1 -0.60000 -0.86952 -16.35400 22.25564
632 12 15 0.00000 -2.21656 -15.78131 20.46646
633 12 15 0.00000 -2.81394 -15.89557 19.07489
634 12 15 0.00000 -3.46728 -16.01858 17.71034
635 12 15 0.00000 -4.11804 -16.16879 16.34649
636 12 15 0.00000 -4.72567 -16.31213 14.96020
637 12 15 0.00000 -5.27438 -16.41511 13.54452
638 12 15 0.00000 -5.76430 -16.47332 12.10349
639 12 15 0.00000 -6.19675 -16.50824 10.64230
640 12 15 0.00000 -6.56464 -16.54645 9.16210
641 12 15 0.00000 -6.85619 -16.59810 7.66548
642 12 15 0.00000 -7.06988 -16.64675 6.15425
643 12 15 0.00000 -7.21783 -16.66074 4.63294
644 12 15 0.00000 -7.32588 -16.61852 3.10875
645 12 15 0.00000 -7.42009 -16.52604 1.58487
646 12 15 0.00000 -7.51281 -16.40986 0.05981
647 12 15 0.00000 -7.62235 -16.39134 -1.46320
648 12 16 0.00000 -7.69973 -16.20119 -2.98914
649 13 16 0.40000 -15.96765 -14.81656 30.47189
650 13 16 0.40000 -15.87783 -12.73246 29.34253
651 13 16 0.40000 -15.60012 -14.76764 28.12259
652 13 8 -0.50000 -16.32780 -14.12777 29.22046
653 13 15 0.30000 -17.77729 -14.16310 29.00550
654 13 15 0.40000 -19.25881 -14.07338 28.58492
655 13 3 -0.80000 -20.35603 -13.91572 27.82799