LAMMPS data file via write_data, version 5 Oct 2015, timestep = 4000

14048 atoms
58 atom types
11360 bonds
54 bond types
9680 angles
55 angle types
5536 dihedrals
43 dihedral types
336 impropers
3 improper types

-2.5850098325735171e+01 2.5850098325735171e+01 xlo xhi
-2.8300540664590159e+01 2.8300540664590159e+01 ylo yhi
-3.8330110631052406e+01 3.8330110631052406e+01 zlo zhi

Masses

1 15.9994
2 15.9994
3 15.9994
4 15.9994
5 15.9994
6 14.0067
7 14.0067
8 14.0067
9 14.0067
10 14.0067
11 14.0067
12 12.011
13 12.011
14 13.019
15 14.027
16 15.035
17 16.043
18 14.027
19 13.019
20 1.008
21 1.008
22 999
23 32.06
24 63.546
25 63.546
26 55.847
27 65.37
28 24.305
29 40.08
30 30.9738
31 39.948
32 18.9984
33 35.453
34 79.904
35 15.035
36 15.9994
37 22.9898
38 35.453
39 12.011
40 35.453
41 1.008
42 32.06
43 15.035
44 15.9994
45 12.011
46 35.453
47 18.9984
48 12.011
49 14.027
50 15.9994
51 12.011
52 15.9994
53 14.0067
54 28.08
55 999
56 999
57 15.994
58 1.008

Pair Coeffs # lj/cut/coul/long/gpu

1 0.30699 2.7601
2 0.41401 2.6259
3 0.25371 2.8492
4 0.25371 2.8492
5 0.15604 3.1656
6 0.15355 3.1365
7 0.15355 3.1365
8 0.15355 3.1365
9 0.15355 3.1365
10 0.15355 3.1365
11 0.15355 3.1365
12 0.066577 3.5812
13 0.0016789 6.6395
14 0.022773 5.0192
15 0.09853 4.0704
16 0.20812 3.7479
17 0.30682 3.7028
18 0.11503 3.9547
19 0.14617 3.6818
20 0.028411 2.3734
21 0 0
22 0 0
23 0.039532 2.309
24 0 0
25 0 1
26 0 0
27 0 0
28 0 0
29 0 0
30 0.58722 3.3856
31 0 0
32 0 0
33 0 0
34 0 0
35 0 0
36 0 0
37 0 0
38 0 0
39 0 0
40 0 0
41 0 0
42 0 0
43 0 0
44 0 0
45 0 0
46 0 0
47 0 0
48 0 0
49 0 0
50 0 0
51 0 0
52 0 0
53 0 0
54 0 0
55 0 0
56 0 0
57 0.15543 3.1655
58 0 0

Bond Coeffs # harmonic

1 375.23 1
2 446.93 1
3 349.266 1.09
4 1109.27 1.12
5 600.228 1.23
6 500.406 1.25
7 499.72 1.32
8 374.994 1.33
9 448.133 1.33
10 498.865 1.33
11 450.606 1.34
12 502.104 1.34
13 450.896 1.36
14 500.667 1.38
15 399.894 1.39
16 498.714 1.39
17 400.048 1.4
18 399.782 1.43
19 450.121 1.43
20 300.214 1.435
21 449.832 1.47
22 299.969 1.48
23 399.958 1.48
24 450.215 1.48
25 450.097 1.5
26 299.837 1.52
27 400.025 1.53
28 299.844 1.61
29 299.72 1.63
30 205.971 1.78
31 449.805 1.78
32 449.818 1.83
33 300.038 1.87
34 59.9664 1.98
35 60.0368 2
36 500.295 2.04
37 63.0342 2.21
38 554.48 1
39 349.92 1.1
40 599.78 1.758
41 449.818 1.53
42 444.33 1.938
43 599.664 1.76
44 501.014 1.265
45 448.645 1.35
46 555.115 1.633
47 350.241 2.3384
48 600.147 2.9028
49 445.873 2.7939
50 443.805 2.9119
51 409.318 2.077
52 600.159 2.8741
53 527.1 1
54 629.318 0.94

Improper Coeffs # harmonic

1 20.0071 0
2 40.0141 35.2644
3 80.0282 0

Atoms # full

8227 748 58 4.0999999999999998e-01 -2.3651835920072987e+01 -2.5373758629573103e+01 -3.4825084087338098e+01 -3 0 1
8816 944 58 4.0999999999999998e-01 -2.0711276019467132e+01 -2.5187327990158323e+01 -2.9168612841056294e+01 -7 0 1
8814 944 57 -8.1999999999999995e-01 -2.0997863951251080e+01 -2.4668144827495411e+01 -2.9973793691221452e+01 -7 0 1
8815 944 58 4.0999999999999998e-01 -2.1952367427953956e+01 -2.4879039805143222e+01 -3.0184616890953592e+01 -7 0 1
12033 2017 57 -8.1999999999999995e-01 -2.3674783656821905e+01 -1.8789366452183792e+01 -3.0446091994517936e+01 4 3 0
11309 1775 58 4.0999999999999998e-01 -1.9791082566042572e+01 -2.3515829699657260e+01 -3.0394069704508436e+01 3 -6 0
6688 235 58 4.0999999999999998e-01 -2.4684831774956695e+01 -2.4046716060225016e+01 -3.0590664576917611e+01 -2 9 1
6689 235 58 4.0999999999999998e-01 -2.4147426282218792e+01 -2.5480129360965236e+01 -3.1159993448807882e+01 -2 9 1
6687 235 57 -8.1999999999999995e-01 -2.3958181919425375e+01 -2.4499616875261946e+01 -3.1107250329587490e+01 -2 9 1
11307 1775 57 -8.1999999999999995e-01 -1.9084142443236981e+01 -2.2966292176669803e+01 -3.0839315899253986e+01 3 -6 0
11308 1775 58 4.0999999999999998e-01 -1.9437492055020179e+01 -2.2602645429159679e+01 -3.1701235324168550e+01 3 -6 0
8226 748 57 -8.1999999999999995e-01 -2.4222574918818570e+01 -2.6194583996288070e+01 -3.4847505343269567e+01 -3 0 1
9076 1031 58 4.0999999999999998e-01 -2.1146445971974721e+01 -2.1983466933260001e+01 -3.2890612348036711e+01 -1 -6 1
11026 1681 58 4.0999999999999998e-01 -2.0488419874402233e+01 -2.5407134752598800e+01 -3.4844632054535587e+01 4 3 0
11025 1681 57 -8.1999999999999995e-01 -2.0548828927993831e+01 -2.5553535327191696e+01 -3.5832011220954051e+01 4 3 0
10306 1441 58 4.0999999999999998e-01 -2.3200140483289996e+01 -2.3253467786293577e+01 -3.2411465928582928e+01 0 4 0
10305 1441 57 -8.1999999999999995e-01 -2.2876848913930331e+01 -2.2547010885233817e+01 -3.3041069937721979e+01 0 4 0
9077 1031 58 4.0999999999999998e-01 -1.9911396879832640e+01 -2.1989513116015274e+01 -3.3959364378360974e+01 -1 -6 1
9075 1031 57 -8.1999999999999995e-01 -2.0232544514412549e+01 -2.1626843793327797e+01 -3.3084530017179908e+01 -1 -6 1
12824 2280 58 4.0999999999999998e-01 -2.0614263679596117e+01 -2.6510063923839336e+01 -3.2810800222614070e+01 5 1 0
12822 2280 57 -8.1999999999999995e-01 -2.0933936929953685e+01 -2.5618965905488892e+01 -3.3132907867332769e+01 5 1 0
8299 772 58 4.0999999999999998e-01 -2.4712850969188352e+01 -2.3084220955451510e+01 -3.6339922561249438e+01 7 9 1
8300 772 58 4.0999999999999998e-01 -2.3671195072534836e+01 -2.1935412115889253e+01 -3.5827277496943935e+01 7 9 1
9904 1307 58 4.0999999999999998e-01 -2.2543177413359967e+01 -2.2885222065467630e+01 -3.7372567190495566e+01 -5 0 1
8228 748 58 4.0999999999999998e-01 -2.3789369665357484e+01 -2.6917188221433062e+01 -3.4308825157762456e+01 -3 0 1
11704 1907 58 4.0999999999999998e-01 -2.5727793460332528e+01 -2.5690230965199124e+01 -3.5249265839360120e+01 1 4 0
10307 1441 58 4.0999999999999998e-01 -2.3363871402814254e+01 -2.2626754634720758e+01 -3.3910811295798155e+01 0 4 0
10705 1574 58 4.0999999999999998e-01 -2.1980214423063533e+01 -1.9507632207181100e+01 -3.1130008049264564e+01 8 -3 0
10704 1574 57 -8.1999999999999995e-01 -2.1027830890681141e+01 -1.9477196194524677e+01 -3.1433387772428219e+01 8 -3 0
13182 2400 57 -8.1999999999999995e-01 -1.8776685453708570e+01 -2.1871948720788133e+01 -3.5570946789528058e+01 -5 -7 0
8298 772 57 -8.1999999999999995e-01 -2.3947095547295287e+01 -2.2891291202032654e+01 -3.5726410748355654e+01 7 9 1
9905 1307 58 4.0999999999999998e-01 -2.1526856912289542e+01 -2.4096957136778929e+01 -3.6964640144863971e+01 -5 0 1
11027 1681 58 4.0999999999999998e-01 -1.9688652873586076e+01 -2.5281050249506052e+01 -3.6263113341474671e+01 4 3 0
6637 218 58 4.0999999999999998e-01 -2.1954398983166154e+01 -2.0359962545452493e+01 -3.6408313874111720e+01 4 0 1
10685 1567 58 4.0999999999999998e-01 -2.3559628920316385e+01 -1.9906644765593970e+01 -3.4520366960502535e+01 -7 -2 0
10683 1567 57 -8.1999999999999995e-01 -2.3467800840314244e+01 -2.0248167904751003e+01 -3.5455743649086280e+01 -7 -2 0
10706 1574 58 4.0999999999999998e-01 -2.0863995485931049e+01 -2.0210767824250137e+01 -3.2092956286156948e+01 8 -3 0
6638 218 58 4.0999999999999998e-01 -2.0598411144962785e+01 -2.1257217465963599e+01 -3.6562729899575920e+01 4 0 1
13184 2400 58 4.0999999999999998e-01 -1.8354716238560702e+01 -2.1201662493901171e+01 -3.6181404286561303e+01 -5 -7 0
13183 2400 58 4.0999999999999998e-01 -1.8063102653390022e+01 -2.2402352299820105e+01 -3.5113266081316674e+01 -5 -7 0
6636 218 57 -8.1999999999999995e-01 -2.1162178089689011e+01 -2.0549419761582062e+01 -3.6988393195960683e+01 4 0 1
12823 2280 58 4.0999999999999998e-01 -2.1232273002856306e+01 -2.5069326710003523e+01 -3.2352592327055007e+01 5 1 0
6437 151 58 4.0999999999999998e-01 -1.8079259390547342e+01 -1.9120177519168973e+01 -3.3097391441833651e+01 1 3 1
6435 151 57 -8.1999999999999995e-01 -1.7937382175712919e+01 -1.9995395972883738e+01 -3.2634937644443099e+01 1 3 1
6436 151 58 4.0999999999999998e-01 -1.8705318343215595e+01 -2.0605063896619161e+01 -3.2831353188275301e+01 1 3 1
10684 1567 58 4.0999999999999998e-01 -2.4240106753161974e+01 -1.9928970537876246e+01 -3.6004976403247156e+01 -7 -2 0
3439 64 1 -5.9999999999999998e-01 -1.2179588778034660e+01 -2.7750250027055475e+01 -2.1761921244868866e+01 0 0 0
11201 1739 58 4.0999999999999998e-01 -1.6467539459701946e+01 -2.7469722646016880e+01 -3.6960874683693895e+01 4 -1 0
6718 245 58 4.0999999999999998e-01 -1.7866734886765293e+01 -2.0003673153724712e+01 -3.0576736212157563e+01 -7 1 1
6717 245 57 -8.1999999999999995e-01 -1.7398754169350660e+01 -1.9595684574154316e+01 -2.9792810598729641e+01 -7 1 1
12038 2018 58 4.0999999999999998e-01 -1.7434097649840250e+01 -2.6685258505554614e+01 -2.9928777104201611e+01 0 -2 0
11695 1904 58 4.0999999999999998e-01 -1.7258476701669284e+01 -2.3463449430707069e+01 -3.1565416622005127e+01 -3 2 0
13633 2550 58 4.0999999999999998e-01 -2.3756728053273466e+01 -2.6556232264993941e+01 -3.7740204779672489e+01 3 -1 0
11200 1739 58 4.0999999999999998e-01 -1.7108854428447259e+01 -2.6831171395971836e+01 -3.5601249319458105e+01 4 -1 0
11204 1740 58 4.0999999999999998e-01 -2.5652447749866145e+01 -2.1890955505193563e+01 -3.1940938109449529e+01 8 7 0
10612 1543 58 4.0999999999999998e-01 -1.6745454901972227e+01 -2.7052605407463368e+01 -3.3676823046215340e+01 2 -2 0
9841 1286 58 4.0999999999999998e-01 -1.5834227094524586e+01 -2.2816727815811642e+01 -3.5444735639623175e+01 -4 7 1
9842 1286 58 4.0999999999999998e-01 -1.5922650216666838e+01 -2.4063226510481574e+01 -3.4393053142744023e+01 -4 7 1
9840 1286 57 -8.1999999999999995e-01 -1.6454684103922890e+01 -2.3421161108645087e+01 -3.4945042239254896e+01 -4 7 1
6719 245 58 4.0999999999999998e-01 -1.6470017094199015e+01 -1.9961262187854857e+01 -2.9731162775716538e+01 -7 1 1
13390 2469 58 4.0999999999999998e-01 -1.3790468320683827e+01 -2.3476542067139565e+01 -3.1385873792623411e+01 3 7 0
12036 2018 57 -8.1999999999999995e-01 -1.7627021896431103e+01 -2.6906529641872602e+01 -3.0884716076959641e+01 0 -2 0
11694 1904 57 -8.1999999999999995e-01 -1.6795961227230954e+01 -2.4269326809481843e+01 -3.1935066573149932e+01 -3 2 0
11696 1904 58 4.0999999999999998e-01 -1.5870711669412147e+01 -2.4324663687291274e+01 -3.1559765246478026e+01 -3 2 0
8829 949 57 -8.1999999999999995e-01 -1.8364492074022962e+01 -2.4844529383636704e+01 -3.7070099166510538e+01 -7 -1 1
8830 949 58 4.0999999999999998e-01 -1.7632403720807751e+01 -2.4293921426214592e+01 -3.6669003765849830e+01 -7 -1 1
9613 1210 58 4.0999999999999998e-01 -1.5258527346920850e+01 -2.0878666261554063e+01 -3.5210793023650787e+01 11 1 1
9614 1210 58 4.0999999999999998e-01 -1.3945111076819964e+01 -2.0999844005063160e+01 -3.6174051750350060e+01 11 1 1
13389 2469 57 -8.1999999999999995e-01 -1.4336536346951585e+01 -2.3646635233957578e+01 -3.0565582365544760e+01 3 7 0
12286 2101 58 4.0999999999999998e-01 -1.4144111076401769e+01 -2.4052205085435094e+01 -3.4833417283802142e+01 -4 5 0
13391 2469 58 4.0999999999999998e-01 -1.3844379259326212e+01 -2.4272805238390312e+01 -2.9960857199289034e+01 3 7 0
9612 1210 57 -8.1999999999999995e-01 -1.4740526912905905e+01 -2.1486416317478923e+01 -3.5812719447794926e+01 11 1 1
9219 1079 57 -8.1999999999999995e-01 -2.3661642149295567e+01 -2.8255195433569035e+01 -3.2837212706155086e+01 -5 2 1
8831 949 58 4.0999999999999998e-01 -1.8104624486819493e+01 -2.5809990753828139e+01 -3.7051306081478721e+01 -7 -1 1
10613 1543 58 4.0999999999999998e-01 -1.7069307566420427e+01 -2.5464768491952331e+01 -3.3473090132402412e+01 2 -2 0
10611 1543 57 -8.1999999999999995e-01 -1.7218772117656858e+01 -2.6259848409587438e+01 -3.4060889649730470e+01 2 -2 0
12037 2018 58 4.0999999999999998e-01 -1.7512906793496750e+01 -2.6087213030423818e+01 -3.1446586198646536e+01 0 -2 0
10257 1425 57 -8.1999999999999995e-01 -1.4479368853960537e+01 -2.5090309217566276e+01 -3.6976060832819144e+01 -6 5 0
11049 1689 57 -8.1999999999999995e-01 -1.3122629603324446e+01 -2.6440488827282532e+01 -2.9483477211912653e+01 1 -4 0
8506 841 58 4.0999999999999998e-01 -1.7314149556192966e+01 -1.9128433798958859e+01 -3.7765846165665330e+01 14 -1 1
13658 2558 58 4.0999999999999998e-01 -1.4808858590052914e+01 -1.9822372856893608e+01 -3.3222701935581206e+01 -2 1 0
6761 259 58 4.0999999999999998e-01 -1.4990592092963636e+01 -2.1994229851193044e+01 -3.0287389139560961e+01 -2 2 1
9628 1215 58 4.0999999999999998e-01 -1.4423852273100755e+01 -2.7481667572408064e+01 -3.0829500794537481e+01 -2 6 1
10259 1425 58 4.0999999999999998e-01 -1.4267694024120114e+01 -2.5866590329215800e+01 -3.7569846486267998e+01 -6 5 0
12034 2017 58 4.0999999999999998e-01 -2.4673235652099219e+01 -1.8744849578215259e+01 -3.0412747411150935e+01 4 3 0
13657 2558 58 4.0999999999999998e-01 -1.6433000550057507e+01 -1.9988636298003499e+01 -3.3268887221937597e+01 -2 1 0
13632 2550 57 -8.1999999999999995e-01 -2.3763036193839316e+01 -2.7555290286415286e+01 -3.7697271374690864e+01 3 -1 0
9595 1204 58 4.0999999999999998e-01 -2.5272967732188405e+01 -1.2590520463158610e+01 -3.5810047553438793e+01 7 -1 1
8507 841 58 4.0999999999999998e-01 -1.7916908010672131e+01 -1.9237810428110155e+01 -3.6251801015357692e+01 14 -1 1
8958 992 57 -8.1999999999999995e-01 -2.3617179562149431e+01 -2.7470197887165316e+01 -2.9377439812600944e+01 8 6 1
6759 259 57 -8.1999999999999995e-01 -1.5122383628019564e+01 -2.1061671898011348e+01 -2.9951284013922781e+01 -2 2 1
8224 747 58 4.0999999999999998e-01 -1.9248618726311811e+01 -1.0303605579022523e+01 -3.8038318759538868e+01 3 -8 1
8505 841 57 -8.1999999999999995e-01 -1.7770857552293631e+01 -1.9729659988254568e+01 -3.7110144346398783e+01 14 -1 1
9220 1079 58 4.0999999999999998e-01 -2.4468554645423691e+01 -2.8236439083619352e+01 -3.2246839584168470e+01 -5 2 1
12302 2106 58 4.0999999999999998e-01 -1.9053682272368114e+01 -2.7611776927394033e+01 -3.1813344560513670e+01 6 6 0
7013 343 58 4.0999999999999998e-01 -2.5804821393718012e+01 -2.1238658396462107e+01 -2.6095002023476916e+01 4 -3 1
12285 2101 57 -8.1999999999999995e-01 -1.4020054205623131e+01 -2.4085517439737721e+01 -3.3841701507984133e+01 -4 5 0
12287 2101 58 4.0999999999999998e-01 -1.3551984377108090e+01 -2.4933235949250047e+01 -3.3592133952904561e+01 -4 5 0
11600 1872 58 4.0999999999999998e-01 -1.3343504510031810e+01 -2.2505912025430188e+01 -3.3121935350697598e+01 -8 5 0
11199 1739 57 -8.1999999999999995e-01 -1.7268363308911603e+01 -2.7460249917420700e+01 -3.6362049642298466e+01 4 -1 0
9425 1147 58 4.0999999999999998e-01 -2.4979576733479018e+01 -2.7392014980228154e+01 -3.0308880172054142e+01 -6 4 1
11563 1860 58 4.0999999999999998e-01 -1.9709722850038812e+01 -2.8016632014335130e+01 -3.5920976133585619e+01 -4 -5 0
8343 787 57 -8.1999999999999995e-01 -2.5633381539276460e+01 -2.3464713055244893e+01 -2.9353380326881911e+01 5 0 1
8960 992 58 4.0999999999999998e-01 -2.3569042408520183e+01 -2.7675586653999691e+01 -2.8399943894906201e+01 8 6 1
10258 1425 58 4.0999999999999998e-01 -1.4711896699834716e+01 -2.4295231924114248e+01 -3.7536224111281548e+01 -6 5 0
7089 369 57 -8.1999999999999995e-01 -1.3525904972542335e+01 -1.9588799668591790e+01 -3.1899036216353288e+01 11 11 1
13581 2533 57 -8.1999999999999995e-01 -1.2740183894759316e+01 -2.0248607432103739e+01 -3.7073851155739639e+01 -5 -4 0
10102 1373 58 4.0999999999999998e-01 -6.1825296125501010e+00 -2.1885883064894585e+01 -3.8017583985993426e+01 -2 1 1
13818 2612 57 -8.1999999999999995e-01 -1.3631827833428238e+01 -2.7591721563333504e+01 -3.5689291430904767e+01 15 -2 0
9903 1307 57 -8.1999999999999995e-01 -2.1763913934532361e+01 -2.3434157357087631e+01 -3.7674922075112100e+01 -5 0 1
5621 105 15 2.9999999999999999e-01 -2.5494792172849841e+01 -2.6767767769076380e+00 -2.8030786206637163e+01 0 0 0
12970 2329 58 4.0999999999999998e-01 -2.0452868730649289e+01 -1.8667030469575881e+01 -2.9996305966995823e+01 -2 0 0
13656 2558 57 -8.1999999999999995e-01 -1.5622052991710824e+01 -1.9740870347101882e+01 -3.3798959001678419e+01 -2 1 0
12035 2017 58 4.0999999999999998e-01 -2.3327845970347813e+01 -1.9153779683145743e+01 -2.9581894540834835e+01 4 3 0
9997 1338 58 4.0999999999999998e-01 -2.0390822490735221e+01 -1.8769833021033463e+01 -3.7768353876641825e+01 3 4 1
13819 2612 58 4.0999999999999998e-01 -1.4123690846513103e+01 -2.6729261890713346e+01 -3.5808598135114678e+01 15 -2 0
9881 1299 58 4.0999999999999998e-01 -2.3684022450165720e-01 -2.3231893522851724e+01 -2.6520746882120790e+01 2 0 1
9423 1147 57 -8.1999999999999995e-01 -2.5672120785476512e+01 -2.7797165943586126e+01 -3.0905734788636050e+01 -6 4 1
8959 992 58 4.0999999999999998e-01 -2.2891688323228522e+01 -2.7962724952353863e+01 -2.9858147159100938e+01 8 6 1
10122 1380 57 -8.1999999999999995e-01 -4.3910940103164577e+00 -6.4349859469972674e+00 -3.8312364064717798e+01 -1 5 1
5816 108 15 0.0000000000000000e+00 -1.9385973156418498e+01 -2.8299807076576275e+01 -2.2296198860207785e+01 0 0 0
5626 105 2 -8.0000000000000004e-01 -2.5797877492743410e+01 -6.5271389884884776e+00 -2.7454038544210995e+01 0 0 0
11289 1769 57 -8.1999999999999995e-01 -1.1355235729462451e-01 -2.3570933486977708e+01 -3.5503789994262441e+01 -2 -10 0
6836 284 58 4.0999999999999998e-01 -7.2439435269922459e-01 -2.5888906863020114e+01 -3.0542377528274070e+01 3 2 1
7400 472 58 4.0999999999999998e-01 -1.0656184948230614e+01 -2.6013570613724603e+01 -3.6985110716802353e+01 -8 8 1
7398 472 57 -8.1999999999999995e-01 -1.0846527589530279e+01 -2.6809221924602294e+01 -3.7560183469664750e+01 -8 8 1
9175 1064 58 4.0999999999999998e-01 -8.3542175770033538e+00 -2.2729826509711376e+01 -3.6411265613166449e+01 8 3 1
9174 1064 57 -8.1999999999999995e-01 -7.8254040164299239e+00 -2.2189503879313342e+01 -3.7065794201864698e+01 8 3 1
12398 2138 58 4.0999999999999998e-01 -1.1329103216615128e+01 -2.3604148452427641e+01 -2.9610947997594376e+01 6 -4 0
12720 2246 57 -8.1999999999999995e-01 -1.2408249127010414e+01 -2.6280889131869255e+01 -3.3370809744774050e+01 1 -7 0
12743 2253 58 4.0999999999999998e-01 -1.0202375722154548e+01 -2.5647537298748404e+01 -3.0334360721096253e+01 0 2 0
12741 2253 57 -8.1999999999999995e-01 -1.0970124720094645e+01 -2.5056788051880847e+01 -3.0086213981395133e+01 0 2 0
12722 2246 58 4.0999999999999998e-01 -1.2484960303873772e+01 -2.7022670552641774e+01 -3.2704569758474747e+01 1 -7 0
11598 1872 57 -8.1999999999999995e-01 -1.2540098335099124e+01 -2.2025698269899529e+01 -3.2769893780201585e+01 -8 5 0
11326 1781 58 4.0999999999999998e-01 -1.2203604162315074e+01 -2.0847324657489125e+01 -2.9111504679304630e+01 -1 -2 0
12742 2253 58 4.0999999999999998e-01 -1.1774121291004365e+01 -2.5618535640989116e+01 -2.9891203311688979e+01 0 2 0
9187 1068 58 4.0999999999999998e-01 -9.3420697665841317e+00 -2.3735041990475722e+01 -3.3600567080870064e+01 3 -3 1
9186 1068 57 -8.1999999999999995e-01 -8.6210106359595446e+00 -2.3556152259587282e+01 -3.4269949030731524e+01 3 -3 1
11325 1781 57 -8.1999999999999995e-01 -1.2326730962949812e+01 -1.9872743498133797e+01 -2.9298671329451405e+01 -1 -2 0
11599 1872 58 4.0999999999999998e-01 -1.1829739253859692e+01 -2.2689845627575544e+01 -3.2536873902822038e+01 -8 5 0
7090 369 58 4.0999999999999998e-01 -1.3083860218773749e+01 -2.0458517422225924e+01 -3.2118552650839909e+01 11 11 1
7091 369 58 4.0999999999999998e-01 -1.3289519127431785e+01 -1.9320559031440510e+01 -3.0965136493204891e+01 11 11 1
10480 1499 58 4.0999999999999998e-01 -1.0708552660422532e+01 -2.4358819185621254e+01 -3.1677740156834840e+01 3 -5 0
12721 2246 58 4.0999999999999998e-01 -1.2548437458299070e+01 -2.6643791014800058e+01 -3.4292031463598086e+01 1 -7 0
10479 1499 57 -8.1999999999999995e-01 -1.0681590196572683e+01 -2.4115261172818240e+01 -3.2647251642199976e+01 3 -5 0
10481 1499 58 4.0999999999999998e-01 -1.1095379697105773e+01 -2.4848225978252440e+01 -3.3187196864924424e+01 3 -5 0
9188 1068 58 4.0999999999999998e-01 -7.8660988669718952e+00 -2.3073115029530765e+01 -3.3826346443264086e+01 3 -3 1
12396 2138 57 -8.1999999999999995e-01 -1.1722331066928298e+01 -2.2788020698918697e+01 -2.9187501013443505e+01 6 -4 0
12059 2025 58 4.0999999999999998e-01 -9.9651867681695130e+00 -2.1857495340864567e+01 -2.9603260514999274e+01 -8 0 0
12057 2025 57 -8.1999999999999995e-01 -9.0153521972288484e+00 -2.1668357018422750e+01 -2.9852340788995036e+01 -8 0 0
12058 2025 58 4.0999999999999998e-01 -8.6706766040509873e+00 -2.0908507865006676e+01 -2.9301134838362728e+01 -8 0 0
8846 954 58 4.0999999999999998e-01 -2.0585346976202906e+01 -5.2926078417722149e+00 -3.7750361874098829e+01 -7 -3 1
6833 283 58 4.0999999999999998e-01 -6.3153575785539386e+00 -2.1323467499110759e+01 -3.6374957750490424e+01 -11 -3 1
6831 283 57 -8.1999999999999995e-01 -5.7777005390061325e+00 -2.0843562744689567e+01 -3.5681692768803693e+01 -11 -3 1
8191 736 58 4.0999999999999998e-01 -5.2213567885511196e+00 -2.4418460988616825e+01 -3.3443111904177201e+01 -7 -3 1
8190 736 57 -8.1999999999999995e-01 -5.4211260514788577e+00 -2.5025332071129004e+01 -3.2673826696173080e+01 -7 -3 1
8192 736 58 4.0999999999999998e-01 -6.0729515298973045e+00 -2.4581401805424125e+01 -3.2058969424014649e+01 -7 -3 1
8594 870 58 4.0999999999999998e-01 -9.4260281572231722e-02 -1.1910493519332551e+01 -3.5612394793387445e+01 -3 12 1
10615 1544 58 4.0999999999999998e-01 -5.4545223903730129e+00 -2.2671469044307539e+01 -3.5156773845289315e+01 2 0 0
6851 289 58 4.0999999999999998e-01 -4.0989728749028203e+00 -2.0793344126064753e+01 -3.1679222998295316e+01 2 4 1
7648 555 58 4.0999999999999998e-01 -4.1312167438106622e+00 -1.9737034283775206e+01 -3.5369110464842279e+01 6 8 1
6692 236 58 4.0999999999999998e-01 -2.4644390950594151e+00 -2.6614980358414858e+01 -3.4645826641690100e+01 -3 8 1
6850 289 58 4.0999999999999998e-01 -4.7436502667644271e+00 -2.1251603304415891e+01 -3.3108209808722172e+01 2 4 1
7435 484 58 4.0999999999999998e-01 -7.6461700110399136e+00 -2.2894131225662221e+01 -3.0369286990483495e+01 -8 0 1
9855 1291 57 -8.1999999999999995e-01 -4.0683677308744581e+00 -2.6054208583832590e+01 -2.9703135800979748e+01 3 6 1
10614 1544 57 -8.1999999999999995e-01 -5.2319348546693645e+00 -2.3620025415559461e+01 -3.4931617011855749e+01 2 0 0
9856 1291 58 4.0999999999999998e-01 -4.9265194227260967e+00 -2.5541233356033892e+01 -2.9682349038143652e+01 3 6 1
12054 2024 57 -8.1999999999999995e-01 -4.4491127750788664e+00 -2.2674602263224095e+01 -2.9266907968790676e+01 2 7 0
7434 484 57 -8.1999999999999995e-01 -6.8093103482681672e+00 -2.3323386342305213e+01 -3.0709001502719570e+01 -8 0 1
12055 2024 58 4.0999999999999998e-01 -3.6739712110394529e+00 -2.2190151706953930e+01 -2.9672448613289884e+01 2 7 0
6690 236 57 -8.1999999999999995e-01 -2.9427515822191230e+00 -2.7493150937915825e+01 -3.4651623014685050e+01 -3 8 1
7436 484 58 4.0999999999999998e-01 -6.0555170638350226e+00 -2.3127975844852685e+01 -3.0081617711076298e+01 -8 0 1
6832 283 58 4.0999999999999998e-01 -6.3003397913201669e+00 -2.0065307682744134e+01 -3.5333601874227007e+01 -11 -3 1
6691 236 58 4.0999999999999998e-01 -3.8934206706603254e+00 -2.7357307699202170e+01 -3.4372741500762579e+01 -3 8 1
6849 289 57 -8.1999999999999995e-01 -4.8793814616446305e+00 -2.0685504961685652e+01 -3.2295123276343055e+01 2 4 1
7903 640 58 4.0999999999999998e-01 -2.6041960377327782e+00 -2.5205408810436158e+01 -3.6362883068508040e+01 0 -1 1
10639 1552 58 4.0999999999999998e-01 -3.5142577016147247e+00 -2.4271080577415283e+01 -3.1474936665444499e+01 -2 1 0
10638 1552 57 -8.1999999999999995e-01 -2.6068467420364625e+00 -2.3877351119876923e+01 -3.1621846381810371e+01 -2 1 0
12677 2231 58 4.0999999999999998e-01 -9.5506540897110916e+00 -2.1003791999974755e+01 -3.8143226074372826e+01 2 -6 0
9347 1121 58 4.0999999999999998e-01 -2.3346115779925394e+00 -2.2035953345443623e+01 -3.1392788277467137e+01 2 3 1
9275 1097 58 4.0999999999999998e-01 -3.6242025367718962e+00 -2.7706199885746493e+01 -3.0525967870576196e+01 -3 3 1
6745 254 58 4.0999999999999998e-01 -5.3541513994790453e+00 -2.6607438493111321e+01 -3.2767601059685532e+01 5 6 1
9345 1121 57 -8.1999999999999995e-01 -2.5359384993832452e+00 -2.1220738102661798e+01 -3.0849749071608937e+01 2 3 1
13621 2546 58 4.0999999999999998e-01 -6.8547110206800541e+00 -2.0811181001875415e+01 -3.3098431947463666e+01 10 1 0
13620 2546 57 -8.1999999999999995e-01 -7.6326695369536530e+00 -2.1407150105128355e+01 -3.2899431005226305e+01 10 1 0
13622 2546 58 4.0999999999999998e-01 -7.5547252704619234e+00 -2.1757317826072274e+01 -3.1965992598768512e+01 10 1 0
6744 254 57 -8.1999999999999995e-01 -5.2560944586002760e+00 -2.7602090956411551e+01 -3.2800025038303765e+01 5 6 1
10640 1552 58 4.0999999999999998e-01 -2.0256547393328597e+00 -2.4543427212787361e+01 -3.2089348782337154e+01 -2 1 0
6746 254 58 4.0999999999999998e-01 -4.4699036321064503e+00 -2.7878209072585765e+01 -3.2247157268837164e+01 5 6 1
7902 640 57 -8.1999999999999995e-01 -2.5423350408357419e+00 -2.4574091498056244e+01 -3.5589829597833408e+01 0 -1 1
7904 640 58 4.0999999999999998e-01 -3.4539827921649824e+00 -2.4228661460919078e+01 -3.5367171862475736e+01 0 -1 1
9346 1121 58 4.0999999999999998e-01 -1.7187335373883070e+00 -2.0647181208162475e+01 -3.0793105104104654e+01 2 3 1
10616 1544 58 4.0999999999999998e-01 -5.4870966890159032e+00 -2.4213080512582913e+01 -3.5695277990648101e+01 2 0 0
7824 614 57 -8.1999999999999995e-01 -9.5498194006485326e-01 -2.6504592209381400e+01 -3.2222855906324163e+01 6 -1 1
7825 614 58 4.0999999999999998e-01 -1.6003339712196940e+00 -2.7262707606067433e+01 -3.2129144640737046e+01 6 -1 1
11290 1769 58 4.0999999999999998e-01 -1.0341582499757260e+00 -2.3908990622340777e+01 -3.5308336254862624e+01 -2 -10 0
13582 2533 58 4.0999999999999998e-01 -1.2322473378501750e+01 -2.0936366878414287e+01 -3.7667572360341794e+01 -5 -4 0
13583 2533 58 4.0999999999999998e-01 -1.2061209115340132e+01 -1.9915794083994101e+01 -3.6419459434922743e+01 -5 -4 0
13165 2394 58 4.0999999999999998e-01 -9.4871674963786372e+00 -1.9659822274820147e+01 -3.2274917142128459e+01 -4 0 0
6680 232 58 4.0999999999999998e-01 -2.0662294074248382e+00 -1.8978942657680868e+01 -3.6159481923912942e+01 -7 5 1
6598 205 58 4.0999999999999998e-01 -8.6558137043022150e+00 -2.7706513382915901e+01 -3.0724962819524954e+01 -7 4 1
9960 1326 57 -8.1999999999999995e-01 -1.5328748788598974e+00 -2.8296675046199216e+01 -3.7217044388232296e+01 -3 -2 1
9176 1064 58 4.0999999999999998e-01 -7.7664832473122489e+00 -2.2681542769034255e+01 -3.7934371242074931e+01 8 3 1
6597 205 57 -8.1999999999999995e-01 -9.5247868089865833e+00 -2.7215297914066763e+01 -3.0665020291078495e+01 -7 4 1
9920 1312 58 4.0999999999999998e-01 -6.5932645933121767e+00 -2.4515667249258808e+01 -3.8043596951388317e+01 -3 -4 1
13362 2460 57 -8.1999999999999995e-01 -2.3242319172243170e-01 -2.1413610836263994e+00 -3.6598011145165593e+01 -6 -1 0
8844 954 57 -8.1999999999999995e-01 -2.1014890544567056e+01 -6.1656857891016283e+00 -3.7981072127358040e+01 -7 -3 1
6834 284 57 -8.1999999999999995e-01 -1.7181936825852187e-01 -2.5525677614252537e+01 -2.9792227276948271e+01 3 2 1
6835 284 58 4.0999999999999998e-01 -7.4998214759963899e-01 -2.4980121443780622e+01 -2.9185517902127849e+01 3 2 1
9918 1312 57 -8.1999999999999995e-01 -5.9707383893087620e+00 -2.4974036933878384e+01 -3.7409279713944152e+01 -3 -4 1
6678 232 57 -8.1999999999999995e-01 -1.3288458791777080e+00 -1.8763061455728248e+01 -3.6799529452997888e+01 -7 5 1
6599 205 58 4.0999999999999998e-01 -1.0229974520721985e+01 -2.7722823699530366e+01 -3.1160124187601813e+01 -7 4 1
11990 2002 58 4.0999999999999998e-01 -1.1314581698338221e+01 -2.1401839137570324e+01 -3.4065188196378109e+01 1 -3 0
11989 2002 58 4.0999999999999998e-01 -9.8081449539530272e+00 -2.1506425966488013e+01 -3.4687541511575219e+01 1 -3 0
11988 2002 57 -8.1999999999999995e-01 -1.0713068071840691e+01 -2.1096979851273133e+01 -3.4803593351333198e+01 1 -3 0
9919 1312 58 4.0999999999999998e-01 -6.0728611967063273e+00 -2.5964778169127317e+01 -3.7498737735195995e+01 -3 -4 1
11885 1967 58 4.0999999999999998e-01 -1.0864632872935145e+01 -2.4186490398496623e+01 -3.6643174076162090e+01 -2 9 0
7804 607 58 4.0999999999999998e-01 -2.0821158723787985e+01 -5.6090128982950960e-01 -3.8154280121411752e+01 -1 4 1
11884 1967 58 4.0999999999999998e-01 -9.5615268490781826e+00 -2.4076631542218287e+01 -3.5664675511582544e+01 -2 9 0
11883 1967 57 -8.1999999999999995e-01 -1.0160506369041386e+01 -2.4706280442032959e+01 -3.6159413621832371e+01 -2 9 0
6605 207 58 4.0999999999999998e-01 -4.9629563456377236e-02 -2.7137351557382274e+01 -3.6523216256956104e+01 2 4 1
7886 634 58 4.0999999999999998e-01 -1.0588854490517305e+01 -1.9333731929170227e+01 -3.5366318504931684e+01 -9 6 1
9309 1109 57 -8.1999999999999995e-01 -5.8179405941349946e+00 -2.7547276182716043e+01 -3.7950207858353622e+01 0 2 1
11327 1781 58 4.0999999999999998e-01 -1.2673655364041858e+01 -1.9416669563973546e+01 -2.8479134858774298e+01 -1 -2 0
9857 1291 58 4.0999999999999998e-01 -3.3175625713258077e+00 -2.5460664548157105e+01 -2.9413313285799646e+01 3 6 1
11455 1824 58 4.0999999999999998e-01 -6.3308864820088964e+00 -2.8256657051517358e+01 -3.6008879065520041e+01 -7 6 0
10048 1355 58 4.0999999999999998e-01 -2.3571306253373880e+01 -1.8576187389808563e+01 -3.2356799650204842e+01 3 4 1
13939 2652 58 4.0999999999999998e-01 -1.4926881038387592e+01 -1.0275843509173413e+01 -3.7814078760218692e+01 1 -5 0
13149 2389 57 -8.1999999999999995e-01 -1.8630683250858571e+01 -1.8089559307650276e+01 -3.4707495790802646e+01 -1 1 0
13150 2389 58 4.0999999999999998e-01 -1.9433224687635384e+01 -1.7678390428923105e+01 -3.4275214174665010e+01 -1 1 0
7399 472 58 4.0999999999999998e-01 -1.1091732922557638e+01 -2.7587706669734075e+01 -3.6982398175194433e+01 -8 8 1
9594 1204 57 -8.1999999999999995e-01 -2.5390070488378598e+01 -1.1762065822506408e+01 -3.6357724331306343e+01 7 -1 1
12971 2329 58 4.0999999999999998e-01 -1.9158150251712946e+01 -1.8981635701984608e+01 -2.9051667768197511e+01 -2 0 0
13938 2652 57 -8.1999999999999995e-01 -1.4839165542835705e+01 -1.1040966064512785e+01 -3.7176196743150840e+01 1 -5 0
11291 1769 58 4.0999999999999998e-01 -1.6237386146619104e-01 -2.2611905779752576e+01 -3.5782864030513245e+01 -2 -10 0
10047 1355 57 -8.1999999999999995e-01 -2.3527396833430480e+01 -1.8338635082567194e+01 -3.3327181463907259e+01 3 4 1
13068 2362 57 -8.1999999999999995e-01 -2.0985821166137750e+01 -1.7080857040437703e+01 -3.4043368248982709e+01 6 4 0