ITEM: TIMESTEP
0
ITEM: NUMBER OF ATOMS
21
ITEM: BOX BOUNDS pp pp pp
-26.0248 26.0248
-28.013 28.013
-38.4774 38.4774
ITEM: ATOMS id mass x y z vx vy vz fx fy fz 
10346 1.008 -0.164972 18.9793 -34.6561 -0.000898827 0.0147298 -0.00605616 0.555844 -2.74212 1.84266 
12692 1.008 -16.3007 26.7307 -13.5189 0.00277744 0.00526409 0.00137937 -0.0799099 -0.210806 -0.117553 
12690 15.994 -15.6059 26.1763 -13.9769 -0.00428968 -0.00167116 -0.000954301 -5.05764 -2.22909 -0.339802 
12691 1.008 -15.967 25.8405 -14.8469 -0.0207938 -0.0220712 0.0137626 0.181046 0.789492 1.91939 
11365 1.008 -18.1103 14.1332 -4.34369 0.00196963 0.00673377 -0.00630582 0.137155 -0.158054 0.123686 
11364 15.994 -17.2095 14.3496 -3.96731 0.000223571 0.00174202 0.000749372 -0.989336 -0.198382 0.335022 
11366 1.008 -16.9806 15.3006 -4.17499 0.0111744 -0.00227225 -0.0055845 0.0811302 -0.456155 0.190331 
13536 15.994 -13.869 21.5979 6.00779 0.00819467 0.00443998 -1.43096e-05 2.8279 -2.4992 -4.77041 
13537 1.008 -13.8557 20.8885 6.71241 -0.0158357 0.00020016 -0.00381997 0.120517 0.948404 -1.27158 
13538 1.008 -13.4712 21.2378 5.16397 0.0144493 0.00180931 0.00404702 0.171862 -0.378887 -0.0305554 
13585 1.008 -16.8511 11.9934 25.9405 -0.00243157 -0.00805082 -0.00203639 0.328136 1.88907 6.58659 
13584 15.994 -15.9129 11.6475 25.9567 -0.000307256 -0.00221751 -0.000119163 -7.56607 -4.75231 -2.24852 
13586 1.008 -15.7928 11.0454 26.746 0.00373784 0.00391312 0.00392715 6.55912 7.87581 4.78813 
12726 15.994 20.6596 -3.79138 -24.0365 -0.00709357 0.00161493 -0.00135192 -3.38152 -6.10787 7.23345 
12728 1.008 20.2503 -2.958 -23.6651 -0.0183479 -0.00827399 0.00850465 3.35279 2.17289 -3.4473 
12727 1.008 21.6177 -3.84655 -23.7555 -0.0112352 0.00220075 0.0129464 0.624267 -1.42826 -4.51457 
10497 15.994 4.07166 -13.0259 15.9474 4.25693e-05 0.0031245 -1.31819e-05 -2.94028 3.07691 2.35462 
10498 1.008 3.8157 -13.455 16.8136 0.000231563 0.00550743 0.0012339 3.92963 -0.569085 0.963325 
10499 1.008 3.96407 -12.0345 16.0214 0.00510238 0.00375304 -0.00102474 0.565554 0.098758 1.62923 
10345 1.008 0.945953 19.0971 -33.4646 -0.00335915 0.0020607 -0.00248381 0.134981 2.51405 1.35055 
10344 15.994 0.258478 19.5959 -33.9924 -0.00138915 0.00799114 0.00053822 -1.19765 -0.865352 -9.18471 
ITEM: TIMESTEP
1000
ITEM: NUMBER OF ATOMS
21
ITEM: BOX BOUNDS pp pp pp
-26.0884 26.0884
-27.9339 27.9339
-38.3835 38.3835
ITEM: ATOMS id mass x y z vx vy vz fx fy fz 
10345 1.008 -0.702674 19.1885 -33.3664 -0.0045291 -0.00582751 -0.00309739 0.362731 -0.0900152 -0.890918 
10344 15.994 -1.26469 19.7336 -33.9885 -9.15343e-05 0.0029143 0.000545495 -0.414919 6.68709 5.27209 
10346 1.008 -1.45431 19.2056 -34.8163 0.000603839 0.0122231 -0.00555801 1.4617 2.28989 -0.837854 
12692 1.008 -16.5858 24.8265 -13.4419 0.0020427 -0.0163865 -0.00484438 0.631608 0.111916 -0.175656 
12690 15.994 -15.8543 25.2466 -13.979 -0.00169014 -0.00311785 0.000444581 -2.0744 1.64996 -3.84636 
12691 1.008 -16.1964 25.4701 -14.8916 0.00100821 -0.0097763 -0.00220982 0.290078 -0.199471 -0.320192 
11365 1.008 -16.8591 15.4169 -3.62045 -0.00283284 0.0121767 0.000264738 0.429595 -0.00787027 -0.124266 
11364 15.994 -15.9813 15.6173 -4.0556 -0.000305713 0.000701609 7.94136e-05 0.946958 1.17094 -1.08082 
11366 1.008 -15.2394 15.2458 -3.4973 -0.0052048 -0.0115002 -0.0015248 -0.402005 0.0773345 -0.20916 
13536 15.994 -13.2957 19.8634 6.03954 -0.00769258 -0.00640131 0.00062831 -1.31853 -1.10471 -0.97017 
13537 1.008 -13.104 19.7561 5.06399 -0.00195834 0.00386055 0.00061247 -0.121187 0.024888 0.261789 
13538 1.008 -14.0217 19.2306 6.30865 -0.0102101 -0.00828205 -0.0105819 0.143685 0.148866 -0.150576 
13585 1.008 -16.5698 11.5761 25.9841 -0.00177714 0.000841443 -0.00462395 -0.122578 0.306326 1.35031 
13584 15.994 -15.5927 11.3665 25.9485 -0.0019668 -0.000754202 -0.000371883 -6.8427 -9.75044 -4.55221 
13586 1.008 -15.2959 11.0071 26.8332 0.000220379 0.0279533 0.0105246 2.23779 6.17807 -1.00872 
12727 1.008 22.106 -4.90068 -23.6794 0.0076923 0.00553561 -0.00855174 0.837612 0.691937 -4.33735 
12728 1.008 20.819 -3.93733 -23.9681 0.00596806 0.0032184 -0.00859442 -0.212917 0.0907142 -1.58564 
12726 15.994 21.1669 -4.87328 -24.0222 0.00408418 0.00195807 0.00108061 -8.09584 2.13928 2.39427 
10497 15.994 3.45196 -13.3945 15.9425 0.00615326 0.000996491 0.000294089 7.36107 -8.33333 2.96273 
10498 1.008 3.69447 -14.0474 16.6601 0.0249903 -0.0127521 -0.0185392 -2.42904 2.19994 0.623823 
10499 1.008 3.65914 -12.4664 16.2518 0.0113568 -0.00467662 0.0138728 -4.89653 0.0416853 0.167705 
ITEM: TIMESTEP
2000
ITEM: NUMBER OF ATOMS
21
ITEM: BOX BOUNDS pp pp pp
-26.1975 26.1975
-27.9523 27.9523
-38.2188 38.2188
ITEM: ATOMS id mass x y z vx vy vz fx fy fz 
10345 1.008 -1.7003 19.1038 -33.456 -0.0113622 -0.0113108 -0.0101794 -3.69916 -1.84207 -2.11572 
10344 15.994 -1.97351 19.9098 -33.9812 -0.00428657 -0.00160416 0.00105811 -3.82363 -0.222734 2.1513 
10346 1.008 -1.4669 19.9341 -34.843 -0.0172338 -0.00371576 -0.00660967 0.191432 2.1209 1.09635 
12692 1.008 -16.4017 27.8944 -14.0631 -0.00716113 0.00632679 -0.0140055 0.764794 -0.331229 -0.169506 
12690 15.994 -15.9933 26.9832 -14.0086 -0.00691854 0.00734126 0.00126105 1.82805 0.00413027 -1.91011 
12691 1.008 -16.7036 26.311 -13.8001 -0.0098244 0.0081511 -0.00600375 0.467863 -0.154314 -0.133034 
11365 1.008 -17.2811 14.6178 -3.68443 -0.0107567 -0.0231276 0.00653823 -1.24594 0.896861 0.194971 
11364 15.994 -18.0749 15.1602 -3.95962 0.00496684 -0.0036003 -0.000335894 2.48656 -2.07496 0.645696 
11366 1.008 -18.0965 15.2384 -4.95633 0.00837934 -0.0138801 -0.00120858 -0.44193 0.336587 0.375569 
13536 15.994 -14.5326 19.7009 5.94364 -0.00146678 0.000229557 -9.60656e-05 0.891701 0.329123 -1.32396 
13537 1.008 -15.3405 20.2058 6.24756 -0.0039924 -0.00594406 0.003456 0.133273 -0.0905362 -0.147103 
13538 1.008 -14.2673 19.0411 6.6467 0.00575083 0.00117648 -0.00193172 -0.0511924 0.0946942 -0.166685 
13585 1.008 -16.9739 11.2901 26.1878 -0.00106631 -0.00542497 0.015478 -0.88119 -2.10818 -1.98413 
13584 15.994 -16.053 10.9891 25.9403 -0.00391836 -0.00130584 -0.000180497 -3.01397 3.65236 6.0445 
13586 1.008 -15.4805 10.9578 26.7597 0.0149815 0.0182657 -0.012614 -4.39013 -1.75791 0.606555 
12727 1.008 21.7701 -4.04089 -23.5644 0.00535232 -0.00186705 -0.00370627 1.4943 -1.22441 -3.61917 
12728 1.008 20.4818 -3.06572 -23.8029 0.0144094 0.00809505 -0.011939 2.83465 0.501125 -1.28244 
12726 15.994 20.8957 -3.94466 -24.0399 0.00292567 -0.000788415 0.000986023 -8.04463 -7.59779 5.77418 
10497 15.994 3.64975 -13.7184 15.9396 -0.000566781 -0.00196998 -0.000180331 8.96361 -3.04447 -2.28911 
10498 1.008 3.67115 -14.3757 16.693 -0.00529746 0.00312483 0.00438073 -3.71975 4.32048 3.68569 
10499 1.008 3.96786 -12.8278 16.2646 -0.0132453 0.00301561 -0.0015194 -10.4701 3.89115 -1.96792 
ITEM: TIMESTEP
3000
ITEM: NUMBER OF ATOMS
21
ITEM: BOX BOUNDS pp pp pp
-26.0402 26.0402
-28.0206 28.0206
-38.3599 38.3599
ITEM: ATOMS id mass x y z vx vy vz fx fy fz 
10345 1.008 -2.3848 18.3702 -33.5659 0.00637349 -0.00714647 -0.008356 -0.159633 0.438022 0.730902 
10344 15.994 -3.16925 18.8425 -33.9679 0.0044281 -0.00277092 0.000587739 -0.356159 -6.45996 1.39592 
10346 1.008 -3.22128 18.6319 -34.9441 -0.00167565 0.00598879 -0.000969695 4.82899 4.68553 -0.976218 
12690 15.994 -15.9787 25.2755 -13.9723 0.00399011 -0.000767603 0.000238763 1.3279 0.0738172 -1.28836 
12691 1.008 -15.4363 26.0024 -13.5511 -0.00302365 0.00670478 -0.00364216 -0.145989 -0.127082 -0.245847 
11364 15.994 -17.5787 13.3896 -3.9561 0.00440357 -0.00325615 9.30309e-05 1.26488 0.00370611 0.472741 
11366 1.008 -17.3653 14.2238 -4.46459 0.0148807 -0.00558186 0.000689368 -0.0500767 -0.236028 0.135532 
11365 1.008 -18.4785 13.0514 -4.232 0.00135641 0.00670902 -0.0021655 0.31391 0.117503 0.115125 
12692 1.008 -16.2615 25.5583 -14.8888 -0.00119051 -0.00720819 -0.000146308 0.167999 -0.274848 -0.0133206 
13536 15.994 -14.9839 19.5404 6.04831 0.00142071 0.00535219 -0.000163631 -0.83775 6.45411 -1.55012 
13537 1.008 -15.5768 19.4771 5.24549 -0.00255741 -0.00224132 0.00337683 0.182621 0.104295 0.010666 
13538 1.008 -14.4276 20.3692 5.98801 -0.0135222 0.0153289 -0.000780483 -0.287022 -0.378573 -0.131382 
13585 1.008 -16.8969 11.2101 26.1757 -0.00131308 0.00473934 -0.0216853 0.624308 -0.912953 -1.04145 
13584 15.994 -15.9252 11.1923 25.9399 0.00400108 0.000746667 0.00054827 -5.98305 4.99238 3.86757 
13586 1.008 -15.3785 11.1911 26.7773 -0.0150517 0.00568236 0.0129859 -1.82615 1.07748 -0.369172 
12727 1.008 21.3772 -3.94187 -23.7443 -0.00706471 -0.00726979 0.0197364 -1.43825 -0.221209 -1.17911 
12728 1.008 20.0735 -2.95793 -23.7396 0.0077903 0.0124776 -0.0172498 5.50714 4.15723 -8.33545 
12726 15.994 20.4243 -3.84742 -24.0325 5.39887e-05 0.00386155 -0.000156717 -7.96545 0.379192 9.12073 
10497 15.994 3.26006 -13.1762 15.9454 0.00633975 0.00484545 -0.000156054 -0.747589 -5.26 -0.462581 
10498 1.008 3.66713 -13.652 16.7251 0.00950002 -0.000561272 -0.00511004 -3.22527 -2.00003 0.412849 
10499 1.008 3.21092 -12.1967 16.1407 0.00542021 0.00324696 0.00758616 2.90692 -0.418852 0.364909 
ITEM: TIMESTEP
4000
ITEM: NUMBER OF ATOMS
21
ITEM: BOX BOUNDS pp pp pp
-25.99 25.99
-28.0235 28.0235
-38.3466 38.3466
ITEM: ATOMS id mass x y z vx vy vz fx fy fz 
10345 1.008 -4.67046 19.3464 -33.1683 0.0163041 0.01944 -0.00413539 -1.25477 -0.963168 -0.982597 
10346 1.008 -4.44053 20.1149 -34.591 -0.017127 0.0148417 -0.0120457 0.874383 -4.22618 -0.365219 
10344 15.994 -5.11004 19.6457 -34.0152 -0.00128128 0.00824546 0.00101979 -1.17896 1.13395 1.32355 
12690 15.994 -15.9591 26.9013 -14.0367 0.000136005 0.00297666 -0.000538107 1.12211 1.31936 -1.43713 
12691 1.008 -15.5783 27.7013 -13.573 -0.00789082 0.00273347 0.00646911 0.118159 -0.360981 0.0460374 
12692 1.008 -16.9387 26.8394 -13.8452 0.00151278 -0.0107121 0.00206907 0.585786 -0.265083 -0.036801 
11364 15.994 -17.9627 14.9089 -4.03942 -0.00415169 0.00643487 -0.000608422 1.61584 0.608784 3.98306 
11365 1.008 -17.8736 15.2626 -3.10834 -0.0147883 -0.0154034 0.00871709 -0.694181 -0.219178 -1.32681 
11366 1.008 -17.1584 14.3597 -4.26623 -0.00833626 -0.000327523 0.000936782 -0.389643 -0.0460485 -0.588014 
13536 15.994 -15.6579 19.9996 6.0365 0.00376571 -0.0055673 -0.000357756 3.70251 -5.38693 -5.36984 
13537 1.008 -14.9298 19.3831 6.336 0.0103464 0.00428036 0.00390715 -0.0150241 0.111013 -0.0821508 
13538 1.008 -15.5012 20.2638 5.08485 0.00790903 -0.000322668 0.00176938 0.117695 0.0497148 -0.12407 
13585 1.008 -16.9927 11.9281 26.3606 0.00468753 -0.00109405 0.0127483 1.41904 3.65909 2.686 
13584 15.994 -16.0808 11.9769 25.9529 -0.00117854 0.00352247 0.000187889 -0.885501 -5.54038 2.78905 
13586 1.008 -15.4846 11.3014 26.3868 0.00517542 -0.00111491 -0.0157296 -0.199969 2.92681 3.71557 
12726 15.994 20.6286 -4.49637 -24.0378 0.000269005 -0.000723335 -0.000542727 1.235 11.177 17.4123 
12728 1.008 20.3643 -3.55455 -23.8301 -0.0095811 -0.00498814 0.00627348 1.57502 1.41824 -2.11702 
12727 1.008 21.4853 -4.71357 -23.5699 -0.000338142 0.00307646 0.00233801 1.55369 1.96196 -1.14248 
10497 15.994 3.36992 -13.3021 15.9537 0.00139635 0.000749257 -0.000566174 0.282551 5.39814 1.82546 
10498 1.008 3.75669 -13.8614 16.6869 0.00432578 0.00829897 0.00365371 2.53785 0.210786 -1.58855 
10499 1.008 3.69047 -12.3596 16.0483 -0.0213112 0.00784606 0.00532982 -5.05955 0.338186 2.00294 
ITEM: TIMESTEP
5000
ITEM: NUMBER OF ATOMS
21
ITEM: BOX BOUNDS pp pp pp
-26.1681 26.1681
-27.973 27.973
-38.3612 38.3612
ITEM: ATOMS id mass x y z vx vy vz fx fy fz 
10345 1.008 -4.3075 20.3242 -33.2447 0.0158687 -0.00419776 0.00927694 -2.60136 -2.10704 -2.9025 
10346 1.008 -3.23438 19.9723 -34.4246 0.0205898 -0.00376457 0.0134587 -4.91366 2.08561 -6.17242 
10344 15.994 -3.79675 20.6939 -34.0208 0.00309745 -0.00901439 -0.00143288 0.697779 2.44045 13.5356 
12692 1.008 -15.2808 27.0899 -13.2397 0.00530445 -0.00774089 0.00058102 0.341114 -0.389911 -0.668703 
12691 1.008 -16.7095 26.723 -13.9409 0.000600554 -0.0139104 0.0134209 0.582211 -0.255815 -0.459162 
11364 15.994 -18.294 14.4554 -4.00749 -0.00345374 -0.00427244 5.64892e-05 -6.10787 1.48347 3.37647 
11365 1.008 -18.9702 14.6456 -4.71918 0.00367641 0.0045608 -0.00434413 -0.13921 0.312533 0.539113 
11366 1.008 -18.5598 14.9186 -3.16201 -0.0125089 -0.0156794 0.00344781 -0.457628 0.158355 -0.482915 
12690 15.994 -15.7159 26.7007 -14.0516 -0.00064392 0.00199118 -0.000882454 -7.60508 1.58965 -1.1344 
13536 15.994 -13.9833 21.0341 6.01811 0.00145699 -0.00327137 -0.000250167 -4.27723 0.160347 -0.933071 
13537 1.008 -13.5539 21.5471 5.27482 0.0168083 -0.00221524 0.00935947 -0.30402 -0.460353 0.662638 
13538 1.008 -14.6998 21.5914 6.43784 0.00199802 0.00128869 -0.00539006 0.00878348 0.104027 0.0203125 
13585 1.008 -16.8766 12.2861 26.4716 0.00140437 -0.00387541 0.00297929 -5.12384 -4.24731 -3.03885 
13584 15.994 -16.1645 11.832 25.9361 -0.000860208 -0.00374293 -0.000143292 7.32034 8.50663 6.48804 
13586 1.008 -15.591 11.2811 26.5425 0.0102138 0.0071374 -0.000705663 -4.79711 -3.02043 1.18712 
12726 15.994 21.1799 -3.67965 -24.0386 0.00204327 0.00191841 0.000556701 -11.3151 0.091114 1.63758 
12728 1.008 20.8411 -2.79204 -23.7265 0.00759589 0.00503178 -0.00227431 1.53751 0.965517 -0.553354 
12727 1.008 22.0922 -3.84002 -23.6617 0.00491764 0.00157519 -0.00655891 -1.74681 -2.76993 1.05034 
10497 15.994 3.71019 -13.4366 15.9533 0.00325463 0.00305236 0.000389187 0.551888 9.36872 2.19779 
10498 1.008 3.92314 -13.7139 16.8902 0.00777645 0.0219372 0.00493466 1.19637 1.58028 -0.855785 
10499 1.008 3.87117 -12.4549 15.851 -0.0290308 0.00714625 -0.0111099 -0.871649 -2.32931 -1.24117 
ITEM: TIMESTEP
6000
ITEM: NUMBER OF ATOMS
21
ITEM: BOX BOUNDS pp pp pp
-26.1365 26.1365
-28.0033 28.0033
-38.3051 38.3051
ITEM: ATOMS id mass x y z vx vy vz fx fy fz 
10345 1.008 -3.22632 19.6331 -33.5668 -0.023885 0.00486883 -0.0113251 1.02589 0.807903 -2.20821 
10346 1.008 -3.28473 20.6314 -34.8582 0.0325195 0.000237767 -0.0174765 -0.420979 2.06209 4.87681 
10344 15.994 -2.84963 20.4656 -33.9732 -0.00559947 0.00300821 0.00181518 0.686377 8.65697 -9.9861 
12692 1.008 -14.8848 25.5522 -13.6881 0.00539291 0.00330326 -0.000659263 -0.0797577 -0.0394678 0.168936 
12691 1.008 -16.21 25.6744 -14.635 0.0119948 0.00577114 -0.00958691 0.133982 0.283005 0.240801 
12690 15.994 -15.6274 26.1551 -13.9796 0.00371002 0.00186447 0.000645751 0.669492 -0.896201 -1.93607 
11364 15.994 -16.5777 15.3661 -3.97784 0.00584928 -0.00369779 0.00237194 -2.78487 -4.44764 -1.50428 
11365 1.008 -17.5326 15.6612 -4.00974 0.00843188 0.00261187 -0.0166893 1.26242 1.10215 0.619379 
11366 1.008 -16.5029 14.4377 -4.34184 0.0109142 0.00585521 -0.0209465 1.38183 1.25144 0.692801 
13536 15.994 -15.2204 20.0122 5.95652 0.000170071 -0.00158892 0.000437052 0.815776 1.10967 3.16485 
13537 1.008 -15.1649 20.139 6.9469 -0.0257603 -0.0148766 0.00359443 -0.129855 1.13247 -2.0163 
13538 1.008 -15.1918 19.0357 5.74293 -0.0168192 0.000317742 -0.0105292 -0.0888063 1.39912 -1.24067 
13585 1.008 -16.6303 11.4754 26.3077 0.00674926 0.00432298 0.00666821 -1.09793 -4.63745 0.973573 
13584 15.994 -15.7785 11.1051 25.9373 0.00226769 0.000806189 -0.000137791 5.85663 1.70759 1.94622 
13586 1.008 -15.1976 10.7895 26.6875 0.00911625 0.00308885 -0.00448187 1.39333 -0.0377758 -0.959608 
12726 15.994 21.2956 -4.24463 -23.9982 0.00270333 -0.000260816 -0.000705001 -6.80814 -1.77847 0.150509 
12728 1.008 20.9703 -3.38804 -24.3987 -0.00735682 0.00389704 0.0163645 1.93505 0.600346 2.08108 
12727 1.008 22.2161 -4.11283 -23.6305 0.00429995 0.00109868 -0.00517818 -0.272179 -2.8968 0.452608 
10497 15.994 4.20572 -13.8208 15.9474 0.00173898 0.00702725 0.000322028 -2.28749 0.657296 -3.36147 
10498 1.008 4.27392 -14.1445 16.8911 0.00219331 0.0156629 0.00324897 -0.527894 1.08854 -0.0376903 
10499 1.008 4.05849 -12.8317 15.9435 -0.0122472 0.00491261 -0.00835861 1.41906 -0.401819 -1.37779 
ITEM: TIMESTEP
7000
ITEM: NUMBER OF ATOMS
21
ITEM: BOX BOUNDS pp pp pp
-26.0448 26.0448
-28.016 28.016
-38.499 38.499
ITEM: ATOMS id mass x y z vx vy vz fx fy fz 
10345 1.008 -2.93696 17.1936 -34.166 -0.00320767 0.00169137 0.0136363 -0.574488 -8.48809 5.31773 
10346 1.008 -4.46242 16.7071 -34.4882 0.00182659 0.00471058 -0.0147734 -1.47083 -1.06594 4.66097 
10344 15.994 -3.90342 17.3452 -33.9588 -0.00642756 -0.000338108 7.16675e-05 1.97494 8.36932 -5.9892 
12692 1.008 -16.689 26.107 -13.9407 0.0128404 0.00711201 0.0108125 0.42601 -0.271877 -0.138434 
12691 1.008 -15.6173 25.1192 -13.2035 0.012629 -0.00660421 -0.00724213 -0.0806485 0.181627 -0.47259 
12690 15.994 -15.8358 25.5979 -14.0539 0.00989723 0.00462482 -0.00022502 2.64706 -0.904566 -2.43243 
11364 15.994 -16.1269 15.4713 -4.0126 -0.00413095 -0.00295252 0.00222947 -0.0994273 -2.89065 0.377294 
11365 1.008 -16.9782 14.9555 -3.91631 -0.00603513 -0.00381414 -0.0191827 0.218788 1.55613 -0.254754 
11366 1.008 -15.3482 14.8573 -3.88376 -0.0064462 -0.00976362 -0.0161924 0.149326 1.49874 -0.217437 
13536 15.994 -14.5279 19.901 5.95933 -0.00125783 -0.00262623 -0.000193365 1.85646 -1.69962 -2.50574 
13537 1.008 -15.0152 19.2553 6.54719 -0.0123086 -0.00170582 -0.0083364 0.14131 0.552901 -0.187537 
13538 1.008 -14.8944 20.821 6.09813 0.0144752 0.00189704 0.0114045 0.283193 -1.12102 0.0193627 
13585 1.008 -17.3077 11.9598 25.9243 -0.00342741 -0.0146034 0.00605017 -0.105931 -0.92528 4.19018 
13584 15.994 -16.3238 11.7837 25.9549 -0.000882697 -0.00135368 0.000369985 -5.5832 -1.0605 1.69063 
13586 1.008 -16.0998 11.2847 26.792 0.00746505 -0.0181595 -0.0119207 3.54487 -4.97746 -5.31881 
12726 15.994 20.811 -3.85773 -24.0253 0.00374823 0.00280393 -0.00177486 0.948351 12.3109 9.56198 
12728 1.008 20.5213 -2.90113 -24.0569 -0.0126928 -0.00185307 0.00771662 1.5146 0.277249 1.23666 
12727 1.008 21.684 -3.92634 -23.5423 -0.00795101 0.00987987 0.0204452 0.527251 -2.78652 -4.14893 
10497 15.994 3.0832 -13.8209 15.9454 -0.00108273 -0.00678083 0.00054621 -3.65772 1.0585 -1.85759 
10498 1.008 3.625 -14.295 16.6394 -0.00342246 -0.00233183 0.00541875 0.922608 0.644157 -0.792511 
10499 1.008 2.93484 -12.8731 16.2276 0.0123253 -0.000339292 -0.0140855 3.56714 0.313275 -2.6695 
ITEM: TIMESTEP
8000
ITEM: NUMBER OF ATOMS
21
ITEM: BOX BOUNDS pp pp pp
-26.1078 26.1078
-28.033 28.033
-38.415 38.415
ITEM: ATOMS id mass x y z vx vy vz fx fy fz 
10345 1.008 -3.28334 17.0887 -33.8732 0.0063883 0.00708806 0.00775075 -2.32527 -1.42168 -0.682921 
10346 1.008 -4.16082 18.0191 -34.8891 0.0069281 -0.00409997 -0.00298057 1.88024 2.75963 0.0892506 
10344 15.994 -3.82448 17.926 -33.952 0.00147865 0.00316972 -0.000300634 4.24601 0.517318 2.61153 
12692 1.008 -16.764 24.7246 -14.8411 0.00414147 0.019188 -0.00934685 1.7527 0.591165 0.21143 
12691 1.008 -17.0722 25.1168 -13.2858 -0.0159765 0.0174946 -0.0129097 1.76672 0.231228 -0.346542 
12690 15.994 -16.3657 25.0715 -13.992 -0.00273565 0.000761776 0.00140269 -3.08162 -0.872049 -0.599743 
11364 15.994 -17.0851 15.1152 -4.05612 -0.0066475 -0.00202492 0.000114895 -0.388318 -0.126024 0.256231 
11365 1.008 -17.7045 14.3361 -3.95922 -0.00672534 -0.00241204 -0.00343918 0.00388267 0.00525908 -0.0157365 
11366 1.008 -16.8273 15.4514 -3.15029 -0.0096074 -0.00380355 0.00161613 -0.0459006 -0.0428259 -0.00295405 
13536 15.994 -13.8367 20.8059 6.03663 0.00446399 0.00127509 0.00030304 -4.53695 -0.339922 2.0912 
13537 1.008 -13.1049 21.4288 5.76032 0.00851073 0.00168079 0.0119144 -0.438133 -0.434014 0.118413 
13538 1.008 -13.6618 19.8968 5.65851 -0.00148319 0.00720932 -0.0167228 -0.0566661 0.91058 0.294922 
13585 1.008 -17.0189 12.0165 26.2559 -0.0134902 -0.0187753 -0.0183339 -0.188307 -5.29253 0.753188 
13584 15.994 -16.1448 11.6473 25.9403 0.000471022 -0.00177015 0.000463265 -7.30171 6.47957 -4.24846 
13586 1.008 -15.6968 11.1621 26.6912 -0.00475993 0.00966225 0.0109833 0.778228 -0.51411 -2.46655 
12726 15.994 21.0296 -4.07156 -24.0097 -0.00263716 0.00775087 0.000408066 -1.54176 -4.52029 1.73528 
12728 1.008 20.7913 -3.10049 -24.0253 -0.010532 0.00576763 -0.0025497 -3.06754 -1.13007 4.65697 
12727 1.008 22.0062 -4.17263 -23.8201 -0.000894359 0.016423 -0.0039251 -0.00093946 1.83146 -0.494533 
10497 15.994 3.35703 -13.1977 15.9523 -0.0025441 -0.0026317 -7.49235e-05 -8.2927 2.08192 -7.38996 
10498 1.008 3.63819 -13.5439 16.8473 -0.0226158 0.00806708 0.01042 6.95987 -2.20259 -5.41869 
10499 1.008 3.51847 -12.2117 15.9099 0.000995944 -0.00360311 -0.00923119 3.33485 -0.722996 -0.0715832 
ITEM: TIMESTEP
9000
ITEM: NUMBER OF ATOMS
21
ITEM: BOX BOUNDS pp pp pp
-26.1298 26.1298
-27.9151 27.9151
-38.3104 38.3104
ITEM: ATOMS id mass x y z vx vy vz fx fy fz 
10345 1.008 -2.00639 18.8646 -34.1096 0.00358497 0.00511458 0.0145863 2.67973 2.87333 -1.10748 
10346 1.008 -3.40689 19.4726 -34.6898 0.00102858 -0.0134402 0.00136278 1.45509 -1.38229 -0.423055 
10344 15.994 -2.73681 19.5286 -33.9496 0.0019408 0.00706302 -0.00100517 -2.91409 -21.8097 -5.2488 
12692 1.008 -17.0888 24.4262 -13.5124 -0.00779117 0.00512995 0.00581839 0.297726 0.870137 -0.107521 
12691 1.008 -16.3283 25.8714 -13.4858 0.0219494 -0.0103064 -0.0057657 -0.576839 -0.772194 0.152972 
12690 15.994 -16.8123 25.2138 -14.0631 0.00635666 -0.003899 -3.32082e-06 0.384036 1.26016 0.097244 
11365 1.008 -14.9044 15.3497 -4.17592 0.00428642 -0.00399049 0.00226187 0.0555043 -0.11001 -0.0264102 
11364 15.994 -15.8334 15.0581 -3.94814 0.00314493 -0.00207633 1.84154e-05 0.531891 0.255294 -0.99731 
11366 1.008 -16.1652 14.4245 -4.64698 0.00229146 0.00119061 -0.00255407 0.0841282 -0.0290432 0.0168563 
13536 15.994 -13.8166 19.4112 5.97739 0.000502822 -0.000475453 -0.00107798 -8.171 1.38024 2.95502 
13537 1.008 -14.104 19.4828 6.93247 0.00913077 -0.0105787 0.00229519 -0.0491215 -0.0196482 -0.139811 
13538 1.008 -14.3204 20.0763 5.42631 0.0143265 0.0231669 0.0148092 1.02117 -1.51261 1.23584 
13585 1.008 -17.7495 11.545 25.9887 0.00155014 0.0168514 0.0184528 0.0712706 5.07998 8.0322 
13584 15.994 -16.7775 11.7795 25.972 0.00417092 0.00430917 -0.00150211 -2.0884 -8.20838 -8.93616 
13586 1.008 -16.2561 11.0763 26.4553 0.00285649 0.00807368 0.0053813 0.275228 3.44843 4.44411 
12726 15.994 20.5882 -3.84725 -24.0175 -0.00232939 -0.00325474 -0.00070351 6.04476 -4.94597 4.42753 
12728 1.008 20.4649 -2.8603 -23.9139 -0.0205816 -0.00575969 0.00141678 -1.96834 -0.977235 -4.2053 
12727 1.008 21.5357 -4.08905 -23.8085 -0.000682131 0.0123273 0.00974586 -0.251047 2.65352 2.478 
10497 15.994 3.53152 -13.5047 15.9456 0.00495632 -0.00410716 0.000779479 -8.47682 1.53902 -2.1835 
10498 1.008 3.72856 -13.9344 16.8268 -0.00143064 0.0204202 0.0141953 4.02209 1.11207 -2.9128 
10499 1.008 3.60092 -12.5112 16.0357 0.00508759 -0.00164014 -0.0265633 4.52043 -1.93657 -1.80698 
ITEM: TIMESTEP
10000
ITEM: NUMBER OF ATOMS
21
ITEM: BOX BOUNDS pp pp pp
-26.2634 26.2634
-27.9268 27.9268
-38.2953 38.2953
ITEM: ATOMS id mass x y z vx vy vz fx fy fz 
10345 1.008 -0.644042 20.4111 -34.5007 0.0118337 0.00388568 0.0166494 0.931675 -1.31553 2.75746 
10346 1.008 -2.07162 19.6195 -34.4469 0.0172431 -0.007598 -0.00867672 -2.18392 6.37088 -2.92831 
10344 15.994 -1.44893 20.2158 -33.9403 1.67698e-06 0.00349897 -0.000502468 0.197721 -5.03628 -1.32077 
12692 1.008 -14.8302 24.6146 -14.284 0.0103819 -0.00235648 0.0166238 -0.794701 0.992893 0.351519 
12691 1.008 -15.1383 26.2111 -14.1293 0.00316297 -0.000758027 -0.0140366 -0.107766 -0.330221 -0.112373 
12690 15.994 -15.4982 25.2911 -13.9739 0.00559549 0.000621756 -0.000163053 -5.9503 5.61843 3.40223 
11365 1.008 -15.6127 16.1553 -4.248 -0.0057254 -0.0130464 -0.00349325 -0.464748 -0.0937083 -0.115488 
11364 15.994 -16.4879 16.5457 -3.96259 0.0011136 -0.0007298 0.000647643 -0.0478584 -8.09525 0.808156 
11366 1.008 -17.236 16.0036 -4.34559 -0.00839826 0.0176408 -0.00678293 0.905519 0.321104 0.141278 
13536 15.994 -14.0345 21.0447 5.95704 -0.00383935 0.00079736 -0.000549941 -0.538278 0.661705 -0.37015 
13537 1.008 -14.4995 20.1662 6.06664 -0.0190331 0.00819271 -0.00565177 -0.0552121 0.95815 0.3812 
13538 1.008 -14.4025 21.7016 6.61507 0.0190118 -0.00134703 0.0143777 0.227537 -1.62578 -0.95833 
13585 1.008 -17.2451 11.2392 26.1334 0.00238697 -0.0103322 0.0147459 -0.0270725 -4.00647 -0.638667 
13584 15.994 -16.2617 11.1869 25.9598 0.000117914 -0.00258512 -0.000426308 -6.86266 6.24902 -2.36708 
13586 1.008 -15.8654 10.4478 26.5044 0.0140191 -0.000691317 -0.00798165 1.44969 -0.972001 -4.49977 
12728 1.008 20.6129 -3.02924 -23.8303 0.000462499 0.00558664 -0.0136012 -1.67028 -0.574702 -4.93848 
12726 15.994 20.825 -3.98705 -24.0242 0.00331406 0.00331726 0.000745971 3.45844 -9.62345 0.304729 
12727 1.008 21.778 -4.17296 -23.7851 0.00440338 0.0102169 0.00176479 -0.443644 1.60594 3.86473 
10497 15.994 3.80696 -13.9396 15.9422 -0.000975921 0.000870995 0.000477065 4.68192 -4.92037 0.897069 
10498 1.008 3.97623 -14.4213 16.802 0.00235592 0.0177202 0.00925499 -5.7194 1.26096 1.07261 
10499 1.008 3.75231 -12.9562 16.1156 -0.0120652 0.00330747 -0.0168246 -3.15499 -1.2992 -1.37721 
ITEM: TIMESTEP
11000
ITEM: NUMBER OF ATOMS
21
ITEM: BOX BOUNDS pp pp pp
-26.1396 26.1396
-28.0528 28.0528
-38.2079 38.2079
ITEM: ATOMS id mass x y z vx vy vz fx fy fz 
12692 1.008 -15.7418 27.8802 -13.9103 -0.00483688 0.00210699 0.0172779 -1.92709 0.49994 -0.560474 
12691 1.008 -15.8368 26.2541 -13.7896 -0.0131213 0.00348254 0.0290649 -3.12173 0.848521 -0.986544 
12690 15.994 -16.3408 27.0868 -14.0189 -0.00101015 0.00199286 -0.0029207 7.58266 -1.64235 -0.579383 
11365 1.008 -15.0689 16.9005 -4.31573 0.00614019 -0.0145824 -0.0113948 -0.75615 0.0192455 0.283885 
11364 15.994 -15.7335 16.238 -3.97011 0.00324084 -0.00501944 0.00135018 2.39927 -1.23716 0.236433 
11366 1.008 -15.4095 15.3109 -4.15849 -0.0164746 -0.00958459 -0.0100286 -0.903855 0.877406 0.39361 
13536 15.994 -12.6919 21.1251 6.04138 0.0019229 -0.00263496 -0.00037594 -1.64366 -1.98912 -2.00168 
13537 1.008 -13.5595 21.3096 5.57959 0.00281413 0.0094449 0.00277812 0.224998 -0.275234 0.0139121 
13538 1.008 -12.3503 20.2272 5.76377 -0.0147175 -0.0100576 0.00318694 -0.376934 0.608412 0.15659 
13585 1.008 -17.0928 10.9226 26.1041 -0.000709464 0.0158813 -0.0117268 0.84582 1.95517 -0.228193 
13584 15.994 -16.1143 10.7948 25.942 -0.000586591 0.0015036 0.000407614 -3.12709 1.42835 3.35527 
13586 1.008 -15.6276 10.8014 26.8156 -0.00938751 0.0108288 0.00525918 -0.709738 -7.52112 0.0297678 
12727 1.008 21.9815 -3.91043 -23.8423 -0.00254012 0.0154631 0.0211528 -1.90648 -2.02577 1.04347 
12726 15.994 21.0038 -3.79781 -24.0197 -0.000318525 -0.000444414 -0.00118087 3.93579 -4.66239 8.7277 
12728 1.008 20.7398 -2.84933 -23.8445 -0.0207484 -0.00590405 -0.00241598 2.25652 -0.216288 -3.02194 
10497 15.994 3.44295 -14.277 15.9564 -0.0024783 0.000764902 -1.6892e-05 4.80666 -1.80904 0.0585916 
10498 1.008 3.83127 -14.4968 16.8513 0.00317139 -0.00151405 -0.00301908 -5.06972 -2.73859 1.56219 
10499 1.008 3.41082 -13.2842 15.8411 -0.0045063 0.0010699 0.00328711 -0.691208 0.227855 3.55498 
10346 1.008 1.49435 21.0705 -34.9009 0.0051056 0.00420261 -0.00198572 1.47097 -2.60052 -1.22786 
10345 1.008 2.54506 20.3106 -33.9078 -0.00723566 -0.00146463 0.00672117 -0.662297 -0.00495664 2.38214 
10344 15.994 1.69919 20.8424 -33.949 -0.00407603 0.00300007 -0.000298446 -3.82694 1.35843 -6.98984 
ITEM: TIMESTEP
12000
ITEM: NUMBER OF ATOMS
21
ITEM: BOX BOUNDS pp pp pp
-26.0135 26.0135
-28.0691 28.0691
-38.3755 38.3755
ITEM: ATOMS id mass x y z vx vy vz fx fy fz 
12692 1.008 -16.8408 25.3737 -13.7235 -0.00318326 -0.0133145 0.00407401 0.432624 -0.552898 0.46425 
12691 1.008 -15.843 24.9669 -14.9509 -0.00700604 -0.00644792 -0.00128592 0.0763487 -0.47393 0.326331 
12690 15.994 -15.958 24.9664 -13.9575 0.00271678 0.00192349 -0.000175715 -2.0275 3.84644 -1.57603 
11365 1.008 -17.0769 14.1621 -3.85115 -0.0234235 0.00996757 0.00601529 0.949227 1.78624 0.283954 
11364 15.994 -16.6605 15.0473 -4.05893 0.00104146 -0.00299667 -0.000171495 -0.999045 0.719821 2.75428 
11366 1.008 -16.3292 15.4669 -3.21384 0.0138477 -0.00685044 -0.00329418 -0.293571 -0.643516 0.0687215 
13536 15.994 -14.5536 20.0115 5.99808 -0.0066245 -0.000235022 0.000564827 0.801406 1.70438 -2.04134 
13537 1.008 -15.5115 20.1656 6.24017 -0.0074785 0.00683611 -0.00731918 0.373632 0.150928 7.78169e-05 
13538 1.008 -14.4134 19.0434 5.79028 -0.0128141 -0.000655221 -0.00164296 0.18894 0.192923 0.0690225 
13585 1.008 -16.7642 11.1945 26.2518 0.0100053 0.0109254 0.0191609 -0.615915 -4.41558 -1.74429 
13584 15.994 -15.838 10.9822 25.9402 0.000842234 0.000687037 -0.00116343 -6.30856 -2.94596 10.8868 
13586 1.008 -15.3126 10.5922 26.6965 0.0266031 0.0363502 -0.000700745 0.564343 0.831071 -5.62989 
12728 1.008 20.7083 -2.83886 -23.694 -0.00754253 -0.0120992 0.0311796 -3.61627 -2.84449 -4.62799 
12727 1.008 21.9049 -3.83593 -24.1855 -0.000551091 0.00790808 0.00755404 0.445137 -0.720712 5.91703 
12726 15.994 20.9235 -3.7637 -24.0076 -0.00290588 0.000361362 -0.00244113 -2.98548 -3.24724 -0.0647134 
10497 15.994 4.05428 -14.6238 15.9595 -0.0100047 -0.0069633 -0.000167405 -6.41884 5.00755 4.87368 
10498 1.008 3.94316 -14.7629 16.9436 0.00710546 0.00950064 0.00406742 3.46715 -1.79163 -0.98032 
10499 1.008 3.64882 -13.7478 15.6983 0.0197893 0.00642821 -0.00141118 3.59521 -0.81339 0.174987 
10346 1.008 3.51994 19.8205 -34.378 0.000302124 0.00743327 -0.00623715 -1.61561 -6.78499 4.55049 
10345 1.008 2.84146 21.1552 -33.7255 -0.00553423 0.00286559 -0.00294883 4.10735 0.659877 -4.99924 
10344 15.994 2.68086 20.2053 -33.9935 0.000400844 0.000869172 0.000578934 -4.00602 1.74229 0.728041 
ITEM: TIMESTEP
13000
ITEM: NUMBER OF ATOMS
21
ITEM: BOX BOUNDS pp pp pp
-25.9828 25.9828
-28.0012 28.0012
-38.3746 38.3746
ITEM: ATOMS id mass x y z vx vy vz fx fy fz 
12692 1.008 -15.2377 25.3309 -14.3976 0.0106466 0.00215499 -0.00148163 -0.83284 0.170166 -0.411602 
12691 1.008 -14.775 26.8705 -14.1092 -0.0144869 0.0130698 -0.0193518 -1.6544 -1.33284 -0.00594914 
12690 15.994 -15.4991 26.1953 -13.9681 0.00312841 -0.00149888 0.001313 2.92508 1.2076 -0.637964 
11365 1.008 -16.2961 16.6884 -4.49422 0.00895391 0.0295978 0.00441826 1.67762 -0.884535 0.687825 
11364 15.994 -15.4565 16.4664 -3.99838 0.00415259 0.00182597 0.000105742 0.874196 0.836043 -1.51029 