created with groupy

14592 atoms
11904 bonds
10368 angles
6016 dihedrals
384 impropers

58 atom types
54 bond types
55 angle types
43 dihedral types
3 improper types

-28.844410 28.844410 xlo xhi
-28.844410 28.844410 ylo yhi
-44.057255 44.057255 zlo zhi

Masses

1 15.9994
2 15.9994
3 15.9994
4 15.9994
5 15.9994
6 14.0067
7 14.0067
8 14.0067
9 14.0067
10 14.0067
11 14.0067
12 12.0110
13 12.0110
14 13.0190
15 14.0270
16 15.0350
17 16.0430
18 14.0270
19 13.0190
20 1.0080
21 1.0080
22 999.0   # dummy, this type not in this system
23 32.0600
24 63.5460
25 63.5460
26 55.8470
27 65.3700
28 24.3050
29 40.0800
30 30.9738
31 39.9480
32 18.9984
33 35.4350
34 79.9040
35 15.0350
36 15.9994
37 22.9898
38 35.4350
39 12.0110
40 35.4350
41 1.0080
42 32.0600
43 15.0350
44 15.9994
45 12.0110
46 35.4350
47 18.9984
48 12.0110
49 14.0270
50 15.9994
51 12.0110
52 15.9994
53 14.0067
54 28.0800
55 999.0   # dummy, this type not in this system
56 999.0   # dummy, this type not in this system
57 15.9994
58 1.0080

Atoms

1 1 16 0.40000 31.87143 -21.91891 27.11084
2 1 16 0.40000 29.75802 -21.09025 27.79916
3 1 16 0.40000 30.26848 -21.28214 25.47323
4 1 8 -0.50000 30.43491 -21.91261 26.78437
5 1 15 0.30000 29.89020 -23.27322 26.80648
6 1 15 0.40000 29.10960 -24.60357 26.77972
7 1 3 -0.80000 28.15525 -25.51015 26.51703
8 1 30 1.70000 27.34304 -25.08875 25.12954
9 1 2 -0.80000 28.07275 -25.76606 23.99631
10 1 2 -0.80000 27.30155 -23.56750 25.18010
11 1 3 -0.70000 25.84359 -25.75915 25.33475
12 1 15 0.40000 24.80713 -25.33356 24.55798
13 1 14 0.30000 23.81457 -24.49119 23.87741
14 1 4 -0.70000 22.91323 -24.88517 22.75630
15 1 12 0.70000 21.50344 -24.95898 22.94561
16 1 1 -0.70000 21.00836 -25.05911 24.06486
17 1 15 0.00000 20.51724 -24.88722 21.71550
18 1 15 0.00000 19.15081 -24.78046 20.49220
19 1 15 0.00000 17.75357 -24.67030 19.28519
20 1 15 0.00000 16.36631 -24.56954 18.05365
21 1 15 0.00000 15.00017 -24.48580 16.79267
22 1 15 0.00000 13.65713 -24.42149 15.50603
23 1 15 0.00000 12.33774 -24.37851 14.19911
24 1 15 0.00000 11.04556 -24.35541 12.87841
25 1 15 0.00000 9.78027 -24.35623 11.55474
26 1 15 0.00000 8.54759 -24.38289 10.23819
27 1 15 0.00000 7.35432 -24.43924 8.93915
28 1 15 0.00000 6.21544 -24.52676 7.66788
29 1 15 0.00000 5.12357 -24.65406 6.43706
30 1 15 0.00000 4.06649 -24.81747 5.24381
31 1 15 0.00000 3.03129 -25.00506 4.08456
32 1 15 0.00000 1.91753 -25.10819 2.81975
33 1 16 0.00000 0.93900 -25.35605 1.73206
34 1 15 0.50000 24.32579 -23.14821 23.87755
35 1 4 -0.70000 25.04587 -22.04244 24.10902
36 1 12 0.80000 24.94677 -20.98215 23.28353
37 1 1 -0.60000 25.49764 -19.88892 23.50116
38 1 15 0.00000 24.12978 -21.14106 22.12104
39 1 15 0.00000 23.26469 -21.43873 20.90885
40 1 15 0.00000 22.44036 -21.78157 19.68128
41 1 15 0.00000 21.63130 -22.10784 18.43825
42 1 15 0.00000 20.78950 -22.39921 17.20617
43 1 15 0.00000 19.88639 -22.65948 16.00930
44 1 15 0.00000 18.92267 -22.89156 14.85286
45 1 15 0.00000 17.91491 -23.08565 13.72589
46 1 15 0.00000 16.87721 -23.22176 12.61574
47 1 15 0.00000 15.81423 -23.28487 11.52319
48 1 15 0.00000 14.71770 -23.28264 10.46045
49 1 15 0.00000 13.57637 -23.24255 9.44445
50 1 15 0.00000 12.39047 -23.19854 8.48097
51 1 15 0.00000 11.17270 -23.16966 7.55585
52 1 15 0.00000 9.94017 -23.15202 6.64564
53 1 15 0.00000 8.76902 -23.09676 5.66726
54 1 16 0.00000 7.48987 -23.10549 4.81031
55 2 16 0.40000 32.42333 26.99004 24.86117
56 2 16 0.40000 30.68297 28.57846 25.13517
57 2 16 0.40000 30.99725 27.49922 23.02713
58 2 8 -0.50000 31.03723 27.31046 24.47869
59 2 15 0.30000 30.11949 26.25417 24.91510
60 2 15 0.40000 28.98295 25.27831 25.28366
61 2 3 -0.80000 27.79286 24.65752 25.28278
62 2 30 1.70000 27.07119 24.82276 23.79473
63 2 2 -0.80000 27.51245 23.63112 22.98186
64 2 2 -0.80000 27.47999 26.21893 23.34520
65 2 3 -0.70000 25.45339 24.72636 24.13138
66 2 15 0.40000 24.54953 25.15989 23.20734
67 2 14 0.30000 23.81457 25.98653 22.24069
68 2 4 -0.70000 22.78220 25.53160 21.26509
69 2 12 0.70000 21.42407 25.94006 21.39704
70 2 1 -0.70000 20.97826 26.35948 22.46155
71 2 15 0.00000 20.44171 25.89320 20.16265
72 2 15 0.00000 19.10693 25.99146 18.90421
73 2 15 0.00000 17.74454 26.10712 17.65849
74 2 15 0.00000 16.38769 26.20341 16.39317
75 2 15 0.00000 15.04454 26.26864 15.10666
76 2 15 0.00000 13.71647 26.30127 13.80340
77 2 15 0.00000 12.40369 26.30119 12.48913
78 2 15 0.00000 11.11039 26.27078 11.16968
79 2 15 0.00000 9.83559 26.21002 9.85657
80 2 15 0.00000 8.58472 26.11879 8.56022
81 2 15 0.00000 7.36365 25.99502 7.29206
82 2 15 0.00000 6.18677 25.83633 6.06299
83 2 15 0.00000 5.04514 25.64125 4.88743
84 2 15 0.00000 3.92804 25.41576 3.76085
85 2 15 0.00000 2.82644 25.17319 2.67533
86 2 15 0.00000 1.66929 24.99520 1.45872
87 2 16 0.00000 0.60774 24.70513 0.46323
88 2 15 0.50000 24.69629 27.04404 21.82934
89 2 4 -0.70000 25.71951 27.90238 21.72413
90 2 12 0.80000 25.89419 28.61588 20.59459
91 2 1 -0.60000 26.75149 29.50804 20.47189
92 2 15 0.00000 25.00918 28.33407 19.50764
93 2 15 0.00000 24.03507 27.92545 18.41652
94 2 15 0.00000 23.08587 27.45926 17.32764
95 2 15 0.00000 22.15533 26.99847 16.21952
96 2 15 0.00000 21.20432 26.58221 15.10874
97 2 15 0.00000 20.20565 26.22333 14.01800
98 2 15 0.00000 19.15940 25.92072 12.95321
99 2 15 0.00000 18.08373 25.67477 11.90167
100 2 15 0.00000 16.99730 25.49518 10.84563
101 2 15 0.00000 15.90902 25.39436 9.78119
102 2 15 0.00000 14.80935 25.37182 8.72193
103 2 15 0.00000 13.68036 25.41165 7.69223
104 2 15 0.00000 12.51260 25.48517 6.70860
105 2 15 0.00000 11.31190 25.56692 5.76452
106 2 15 0.00000 10.09457 25.64774 4.83743
107 2 15 0.00000 8.94344 25.72219 3.83682
108 2 16 0.00000 7.67654 25.81030 2.96627
109 3 16 0.40000 24.82501 -22.23614 25.40533
110 3 16 0.40000 22.77466 -21.21594 26.02360
111 3 16 0.40000 23.26489 -21.61736 23.72015
112 3 8 -0.50000 23.39140 -22.15679 25.07561
113 3 15 0.30000 22.75543 -23.47161 25.19909
114 3 15 0.40000 21.88605 -24.74396 25.27094
115 3 3 -0.80000 20.87154 -25.60076 25.07505
116 3 30 1.70000 20.08631 -25.23113 23.65760
117 3 2 -0.80000 20.76532 -26.04024 22.58068
118 3 2 -0.80000 20.14857 -23.71113 23.59293
119 3 3 -0.70000 18.54525 -25.78051 23.90901
120 3 15 0.40000 17.53816 -25.34530 23.09963
121 3 14 0.30000 16.60347 -24.49119 22.35480
122 3 4 -0.70000 15.67452 -24.90652 21.26435
123 3 12 0.70000 14.26347 -24.86971 21.45506
124 3 1 -0.70000 13.76560 -24.85104 22.57739
125 3 15 0.00000 13.28127 -24.82418 20.22050
126 3 15 0.00000 11.92212 -24.71744 18.98911
127 3 15 0.00000 10.53251 -24.60398 17.77363
128 3 15 0.00000 9.15215 -24.50242 16.53442
129 3 15 0.00000 7.79163 -24.42145 15.26720
130 3 15 0.00000 6.45277 -24.36332 13.97592
131 3 15 0.00000 5.13599 -24.32956 12.66610
132 3 15 0.00000 3.84498 -24.31845 11.34410
133 3 15 0.00000 2.57916 -24.33321 10.02102
134 3 15 0.00000 1.34414 -24.37534 8.70708
135 3 15 0.00000 0.14645 -24.44838 7.41294
136 3 15 0.00000 -0.99902 -24.55402 6.14899
137 3 15 0.00000 -2.10019 -24.69939 4.92850
138 3 15 0.00000 -3.16902 -24.88020 3.74829
139 3 15 0.00000 -4.21757 -25.08398 2.60386
140 3 15 0.00000 -5.33902 -25.20638 1.34761
141 3 16 0.00000 -6.33495 -25.46857 0.27924
142 3 15 0.50000 17.20489 -23.18995 22.25475
143 3 4 -0.70000 17.99914 -22.12142 22.40384
144 3 12 0.80000 17.97030 -21.12228 21.50033
145 3 1 -0.60000 18.59485 -20.05575 21.63613
146 3 15 0.00000 17.14140 -21.31262 20.35107
147 3 15 0.00000 16.25493 -21.64150 19.16262
148 3 15 0.00000 15.40602 -22.01924 17.96235
149 3 15 0.00000 14.57342 -22.38270 16.74545
150 3 15 0.00000 13.71058 -22.70839 15.53675
151 3 15 0.00000 12.78877 -22.99632 14.36065
152 3 15 0.00000 11.80851 -23.24901 13.22257
153 3 15 0.00000 10.78698 -23.45869 12.11090
154 3 15 0.00000 9.73956 -23.60738 11.01154
155 3 15 0.00000 8.67194 -23.68040 9.92415
156 3 15 0.00000 7.57536 -23.68388 8.86145
157 3 15 0.00000 6.43680 -23.64312 7.84240
158 3 15 0.00000 5.25416 -23.59145 6.87528
159 3 15 0.00000 4.03879 -23.54977 5.94750
160 3 15 0.00000 2.80798 -23.51713 5.03538
161 3 15 0.00000 1.64078 -23.45642 4.05260
162 3 16 0.00000 0.36180 -23.44282 3.19548
163 4 16 0.40000 31.23346 -20.65732 25.76403
164 4 16 0.40000 31.17128 -18.89788 24.17422
165 4 16 0.40000 29.93773 -20.90646 23.78522
166 4 8 -0.50000 30.36256 -19.94995 24.80936
167 4 15 0.30000 29.21795 -19.34626 25.49774
168 4 15 0.40000 27.95236 -18.62785 26.00962
169 4 3 -0.80000 26.74639 -18.03873 26.02637
170 4 30 1.70000 25.83115 -18.59012 24.75331
171 4 2 -0.80000 25.07455 -19.78813 25.27079
172 4 2 -0.80000 26.84421 -18.78082 23.63267
173 4 3 -0.70000 24.79256 -17.33824 24.44668
174 4 15 0.40000 24.12770 -17.29498 23.25721
175 4 14 0.30000 23.81457 -17.28009 21.82206
176 4 4 -0.70000 22.47361 -17.44079 21.18919
177 4 12 0.70000 21.86212 -16.35975 20.49191
178 4 1 -0.70000 22.20971 -15.19639 20.67526
179 4 15 0.00000 20.72459 -16.62244 19.42986
180 4 15 0.00000 19.43267 -16.63519 18.12381
181 4 15 0.00000 18.13776 -16.61624 16.80315
182 4 15 0.00000 16.82715 -16.62028 15.48647
183 4 15 0.00000 15.49831 -16.65696 14.18407
184 4 15 0.00000 14.15278 -16.72443 12.90020
185 4 15 0.00000 12.79267 -16.81876 11.63850
186 4 15 0.00000 11.42445 -16.93782 10.40225
187 4 15 0.00000 10.05155 -17.07278 9.19810
188 4 15 0.00000 8.68130 -17.21970 8.03434
189 4 15 0.00000 7.32043 -17.37480 6.92143
190 4 15 0.00000 5.98108 -17.54022 5.87280
191 4 15 0.00000 4.66141 -17.70034 4.89498
192 4 15 0.00000 3.35634 -17.84982 3.97716
193 4 15 0.00000 2.06550 -17.98478 3.10181
194 4 15 0.00000 0.73159 -18.15941 2.08151
195 4 16 0.00000 -0.53041 -18.26922 1.30865
196 4 15 0.50000 24.94450 -17.84243 21.13505
197 4 4 -0.70000 26.15193 -18.33329 20.82525
198 4 12 0.80000 26.32475 -19.05050 19.69777
199 4 1 -0.60000 27.43514 -19.43778 19.29399
200 4 15 0.00000 25.15507 -19.33658 18.92698
201 4 15 0.00000 23.84205 -19.60408 18.21227
202 4 15 0.00000 22.50975 -19.90215 17.54886
203 4 15 0.00000 21.18670 -20.22440 16.87667
204 4 15 0.00000 19.87740 -20.52289 16.16381
205 4 15 0.00000 18.57980 -20.76036 15.40507
206 4 15 0.00000 17.29535 -20.93295 14.60483
207 4 15 0.00000 16.03206 -21.06127 13.76165
208 4 15 0.00000 14.80249 -21.16725 12.86459
209 4 15 0.00000 13.61924 -21.25589 11.90562
210 4 15 0.00000 12.48039 -21.31151 10.88987
211 4 15 0.00000 11.37228 -21.30969 9.83699
212 4 15 0.00000 10.27597 -21.24066 8.77399
213 4 15 0.00000 9.17676 -21.11995 7.71721
214 4 15 0.00000 8.07174 -20.97671 6.66538
215 4 15 0.00000 6.98124 -20.93020 5.59743
216 4 16 0.00000 5.86752 -20.71275 4.55676
217 5 16 0.40000 17.41962 1.73042 25.04232
218 5 16 0.40000 16.97442 3.74856 23.87790
219 5 16 0.40000 16.15515 1.67127 23.02879
220 5 8 -0.50000 16.40470 2.44358 24.24762
221 5 15 0.30000 15.17878 2.64170 25.02629
222 5 15 0.40000 13.80764 2.96428 25.65540
223 5 3 -0.80000 12.50950 3.28419 25.77451
224 5 30 1.70000 11.69355 2.85641 24.39118
225 5 2 -0.80000 11.20120 1.44826 24.61519
226 5 2 -0.80000 12.69903 3.12182 23.27896
227 5 3 -0.70000 10.42082 3.91370 24.34459
228 5 15 0.40000 9.73419 4.08510 23.17929
229 5 14 0.30000 9.39237 4.35322 21.77601
230 5 4 -0.70000 8.09609 4.07323 21.09352
231 5 12 0.70000 7.26702 5.13804 20.63789
232 5 1 -0.70000 7.38110 6.27771 21.08058
233 5 15 0.00000 6.18072 4.89547 19.51893
234 5 15 0.00000 4.88814 4.91474 18.21362
235 5 15 0.00000 3.58602 4.96689 16.90097
236 5 15 0.00000 2.27317 4.99311 15.58679
237 5 15 0.00000 0.94923 4.98139 14.27893
238 5 15 0.00000 -0.38454 4.93288 12.98201
239 5 15 0.00000 -1.72677 4.85095 11.70045
240 5 15 0.00000 -3.07150 4.73817 10.43810
241 5 15 0.00000 -4.41693 4.60223 9.20344
242 5 15 0.00000 -5.75649 4.44649 8.00560
243 5 15 0.00000 -7.08410 4.27360 6.85576
244 5 15 0.00000 -8.38714 4.08097 5.76681
245 5 15 0.00000 -9.67038 3.88171 4.74852
246 5 15 0.00000 -10.94007 3.68230 3.79140
247 5 15 0.00000 -12.19775 3.49022 2.87923
248 5 15 0.00000 -13.49300 3.28364 1.81600
249 5 16 0.00000 -14.72513 3.09874 1.00995
250 5 15 0.50000 10.59573 4.19138 21.00745
251 5 4 -0.70000 11.86928 4.03012 20.62422
252 5 12 0.80000 12.15563 3.62760 19.37065
253 5 1 -0.60000 13.31146 3.56672 18.91640
254 5 15 0.00000 11.04897 3.29218 18.52987
255 5 15 0.00000 9.79941 2.93376 17.74467
256 5 15 0.00000 8.53817 2.53102 17.00234
257 5 15 0.00000 7.29059 2.10894 16.24634
258 5 15 0.00000 6.05087 1.72125 15.45620
259 5 15 0.00000 4.80948 1.40426 14.63502
260 5 15 0.00000 3.56720 1.16097 13.78795
261 5 15 0.00000 2.33592 0.97362 12.90923
262 5 15 0.00000 1.13205 0.82616 11.98362
263 5 15 0.00000 -0.03125 0.71806 11.00250
264 5 15 0.00000 -1.15886 0.66280 9.97427
265 5 15 0.00000 -2.26856 0.67668 8.92316
266 5 15 0.00000 -3.38025 0.75932 7.87724
267 5 15 0.00000 -4.50489 0.88937 6.84869
268 5 15 0.00000 -5.63957 1.03870 5.82981
269 5 15 0.00000 -6.74121 1.10207 4.77423
270 5 16 0.00000 -7.89889 1.31809 3.78238
271 6 16 0.40000 -12.81334 -20.64527 26.88623
272 6 16 0.40000 -15.00357 -21.12630 27.65986
273 6 16 0.40000 -14.68903 -20.04773 25.55152
274 6 8 -0.50000 -14.15782 -21.06814 26.45753
275 6 15 0.30000 -14.11025 -22.38803 25.82185
276 6 15 0.40000 -14.29464 -23.75597 25.13294
277 6 3 -0.80000 -14.82940 -24.74830 24.40425
278 6 30 1.70000 -15.87369 -24.11939 23.27451
279 6 2 -0.80000 -15.04915 -23.87123 22.03596
280 6 2 -0.80000 -16.51275 -22.93619 23.98874
281 6 3 -0.70000 -16.95392 -25.34625 23.01412
282 6 15 0.40000 -18.14467 -25.07359 22.40870
283 6 14 0.30000 -19.45204 -24.49119 22.07778
284 6 4 -0.70000 -20.22667 -24.67071 20.81593
285 6 12 0.70000 -21.46440 -25.37554 20.81416
286 6 1 -0.70000 -21.76656 -26.14857 21.71914
287 6 15 0.00000 -22.51266 -25.16648 19.65296
288 6 15 0.00000 -23.92094 -25.08384 18.47614
289 6 15 0.00000 -25.35708 -25.01793 17.31234
290 6 15 0.00000 -26.78278 -24.94476 16.12348
291 6 15 0.00000 -28.18531 -24.86381 14.90292
292 6 15 0.00000 -29.56153 -24.77790 13.65314
293 6 15 0.00000 -30.90968 -24.69075 12.37816
294 6 15 0.00000 -32.22644 -24.60261 11.08475
295 6 15 0.00000 -33.50943 -24.52167 9.78074
296 6 15 0.00000 -34.75169 -24.45164 8.47484
297 6 15 0.00000 -35.94448 -24.39751 7.17526
298 6 15 0.00000 -37.07252 -24.35903 5.89195
299 6 15 0.00000 -38.13788 -24.35168 4.63169
300 6 15 0.00000 -39.15346 -24.37611 3.39235
301 6 15 0.00000 -40.13613 -24.42628 2.17475
302 6 15 0.00000 -41.23441 -24.39320 0.89275
303 6 16 0.00000 -42.13438 -24.50088 -0.28219
304 6 15 0.50000 -19.52096 -23.20866 22.72222
305 6 4 -0.70000 -19.28226 -22.13584 23.48831
306 6 12 0.80000 -19.87584 -20.95822 23.21200
307 6 1 -0.60000 -19.78781 -19.95677 23.94367
308 6 15 0.00000 -20.67125 -20.89697 22.02554
309 6 15 0.00000 -21.46010 -20.94438 20.72868
310 6 15 0.00000 -22.19528 -21.00502 19.40210
311 6 15 0.00000 -22.92465 -21.03942 18.07056
312 6 15 0.00000 -23.69670 -21.06367 16.76103
313 6 15 0.00000 -24.53362 -21.10295 15.49064
314 6 15 0.00000 -25.43310 -21.16163 14.26285
315 6 15 0.00000 -26.38499 -21.22038 13.07383
316 6 15 0.00000 -27.38565 -21.25192 11.92254
317 6 15 0.00000 -28.43672 -21.24269 10.81677
318 6 15 0.00000 -29.54152 -21.20752 9.76320
319 6 15 0.00000 -30.69767 -21.18047 8.76368
320 6 15 0.00000 -31.89092 -21.19127 7.80835
321 6 15 0.00000 -33.10344 -21.24391 6.87740
322 6 15 0.00000 -34.32348 -21.31805 5.95332
323 6 15 0.00000 -35.50921 -21.30736 4.99113
324 6 16 0.00000 -36.75605 -21.44484 4.09830
325 7 16 0.40000 3.65167 26.39404 24.61316
326 7 16 0.40000 2.08495 28.17331 24.69431
327 7 16 0.40000 2.27456 26.83459 22.72473
328 7 8 -0.50000 2.30350 26.80922 24.18856
329 7 15 0.30000 1.28489 25.90916 24.73700
330 7 15 0.40000 0.05649 25.10329 25.20758
331 7 3 -0.80000 -1.19096 24.61174 25.27040
332 7 30 1.70000 -1.90061 24.67958 23.76901
333 7 2 -0.80000 -1.58861 23.36424 23.09970
334 7 2 -0.80000 -1.35349 25.96618 23.16585
335 7 3 -0.70000 -3.51776 24.78849 24.10494
336 7 15 0.40000 -4.37783 25.20436 23.13226
337 7 14 0.30000 -5.02984 25.98653 22.07348
338 7 4 -0.70000 -6.10911 25.53173 21.14998
339 7 12 0.70000 -7.41742 26.08961 21.22659
340 7 1 -0.70000 -7.81163 26.67098 22.23379
341 7 15 0.00000 -8.40664 26.00347 19.99982
342 7 15 0.00000 -9.73168 26.09414 18.73056
343 7 15 0.00000 -11.08232 26.20626 17.47180
344 7 15 0.00000 -12.42956 26.29645 16.19580
345 7 15 0.00000 -13.76647 26.35212 14.90236
346 7 15 0.00000 -15.09183 26.37213 13.59609
347 7 15 0.00000 -16.40539 26.35700 12.28269
348 7 15 0.00000 -17.70272 26.30931 10.96771
349 7 15 0.00000 -18.98472 26.23045 9.66259
350 7 15 0.00000 -20.24594 26.12094 8.37775
351 7 15 0.00000 -21.48069 25.97942 7.12478
352 7 15 0.00000 -22.67483 25.80331 5.91488
353 7 15 0.00000 -23.83732 25.59373 4.76249
354 7 15 0.00000 -24.97825 25.35716 3.66237
355 7 15 0.00000 -26.10526 25.10679 2.60507
356 7 15 0.00000 -27.28168 24.91101 1.40987
357 7 16 0.00000 -28.37321 24.61985 0.44767
358 7 15 0.50000 -4.04679 26.89433 21.54960
359 7 4 -0.70000 -2.94160 27.62567 21.35335
360 7 12 0.80000 -2.70134 28.18424 20.15097
361 7 1 -0.60000 -1.75783 28.96402 19.93253
362 7 15 0.00000 -3.61694 27.87274 19.09799
363 7 15 0.00000 -4.63419 27.44457 18.05479
364 7 15 0.00000 -5.63255 26.95722 17.02051
365 7 15 0.00000 -6.61191 26.47110 15.96662
366 7 15 0.00000 -7.60710 26.03078 14.90489
367 7 15 0.00000 -8.64368 25.65433 13.85626
368 7 15 0.00000 -9.72167 25.34132 12.82672
369 7 15 0.00000 -10.82304 25.08882 11.80372
370 7 15 0.00000 -11.92834 24.90250 10.76864
371 7 15 0.00000 -13.02745 24.79323 9.71622
372 7 15 0.00000 -14.12983 24.76309 8.65998
373 7 15 0.00000 -15.25482 24.80096 7.62584
374 7 15 0.00000 -16.41465 24.88133 6.63339
375 7 15 0.00000 -17.60616 24.97771 5.67911
376 7 15 0.00000 -18.81421 25.07682 4.74171
377 7 15 0.00000 -19.95750 25.15447 3.73239
378 7 16 0.00000 -21.21378 25.27231 2.85005
379 8 16 0.40000 -15.63307 28.07346 31.72211
380 8 16 0.40000 -16.60371 25.98840 31.14125
381 8 16 0.40000 -17.76817 28.02174 30.67551
382 8 8 -0.50000 -16.44963 27.38556 30.70710
383 8 15 0.30000 -15.79443 27.42697 29.39658
384 8 15 0.40000 -15.28893 27.34336 27.94147
385 8 3 -0.80000 -15.27918 27.18999 26.60803
386 8 30 1.70000 -16.78400 27.53005 25.98976
387 8 2 -0.80000 -16.77688 29.00180 25.65905
388 8 2 -0.80000 -17.74052 27.01481 27.05657
389 8 3 -0.70000 -16.85157 26.62621 24.60470
390 8 15 0.40000 -18.05893 26.38851 24.01773
391 8 14 0.30000 -19.45204 25.98653 23.78204
392 8 4 -0.70000 -20.30146 26.32341 22.60325
393 8 12 0.70000 -20.72281 25.31052 21.69480
394 8 1 -0.70000 -20.14403 24.23002 21.62139
395 8 15 0.00000 -21.97563 25.53189 20.76079
396 8 15 0.00000 -23.40571 25.49511 19.60819
397 8 15 0.00000 -24.84037 25.42608 18.44273
398 8 15 0.00000 -26.28067 25.38363 17.27009
399 8 15 0.00000 -27.72024 25.38062 16.09067
400 8 15 0.00000 -29.15429 25.41637 14.90510
401 8 15 0.00000 -30.57787 25.48794 13.71390
402 8 15 0.00000 -31.98627 25.59261 12.52227
403 8 15 0.00000 -33.37002 25.72367 11.33017
404 8 15 0.00000 -34.71902 25.87821 10.14280
405 8 15 0.00000 -36.02123 26.05434 8.96476
406 8 15 0.00000 -37.26283 26.25479 7.80757
407 8 15 0.00000 -38.43322 26.46842 6.66395
408 8 15 0.00000 -39.54172 26.68836 5.52781
409 8 15 0.00000 -40.60368 26.90536 4.39827
410 8 15 0.00000 -41.82060 27.12191 3.24804
411 8 16 0.00000 -42.77413 27.34229 2.13259
412 8 15 0.50000 -20.09566 25.91318 25.06474
413 8 4 -0.70000 -20.35096 25.87976 26.37947
414 8 12 0.80000 -21.60246 26.08646 26.83386
415 8 1 -0.60000 -21.92957 25.95850 28.02660
416 8 15 0.00000 -22.59340 26.43661 25.86456
417 8 15 0.00000 -23.54792 26.83260 24.75169
418 8 15 0.00000 -24.46643 27.27898 23.62872
419 8 15 0.00000 -25.39911 27.74116 22.52299
420 8 15 0.00000 -26.36073 28.16426 21.42399
421 8 15 0.00000 -27.34518 28.51397 20.31746
422 8 15 0.00000 -28.34696 28.78788 19.20327
423 8 15 0.00000 -29.37243 29.00144 18.09597
424 8 15 0.00000 -30.43663 29.16668 17.01525
425 8 15 0.00000 -31.54668 29.28156 15.97499
426 8 15 0.00000 -32.69331 29.33440 14.96788
427 8 15 0.00000 -33.85272 29.31420 13.97198
428 8 15 0.00000 -34.99944 29.22709 12.96496
429 8 15 0.00000 -36.12507 29.09691 11.93752
430 8 15 0.00000 -37.24009 28.95009 10.89680
431 8 15 0.00000 -38.39741 28.87962 9.90306
432 8 16 0.00000 -39.48075 28.67307 8.82864
433 9 16 0.40000 -4.38606 8.67823 27.23264
434 9 16 0.40000 -4.70690 10.63461 25.93010
435 9 16 0.40000 -5.65612 8.55865 25.22532
436 9 8 -0.50000 -5.35620 9.39654 26.38819
437 9 15 0.30000 -6.56566 9.72435 27.14858
438 9 15 0.40000 -7.91261 10.17477 27.75083
439 9 3 -0.80000 -9.18797 10.58261 27.84465
440 9 30 1.70000 -10.03205 10.11171 26.49255
441 9 2 -0.80000 -10.61088 8.75599 26.81260
442 9 2 -0.80000 -9.01437 10.23604 25.36679
443 9 3 -0.70000 -11.23637 11.24064 26.36998
444 9 15 0.40000 -11.91348 11.37335 25.19412
445 9 14 0.30000 -12.24094 11.56432 23.77489
446 9 4 -0.70000 -13.55365 11.31917 23.11064
447 9 12 0.70000 -14.31560 12.39950 22.58046
448 9 1 -0.70000 -14.12962 13.55778 22.94330
449 9 15 0.00000 -15.41735 12.14822 21.47867
450 9 15 0.00000 -16.70903 12.15760 20.17236
451 9 15 0.00000 -18.00820 12.19980 18.85643
452 9 15 0.00000 -19.31970 12.21674 17.54075
453 9 15 0.00000 -20.64462 12.19705 16.23399
454 9 15 0.00000 -21.98163 12.14209 14.94066
455 9 15 0.00000 -23.32914 12.05545 13.66496
456 9 15 0.00000 -24.68102 11.93959 12.41055
457 9 15 0.00000 -26.03499 11.80263 11.18538
458 9 15 0.00000 -27.38425 11.64815 9.99831
459 9 15 0.00000 -28.72256 11.47917 8.86035
460 9 15 0.00000 -30.03745 11.29323 7.78456
461 9 15 0.00000 -31.33283 11.10435 6.77976
462 9 15 0.00000 -32.61457 10.91872 5.83602
463 9 15 0.00000 -33.88377 10.74275 4.93664
464 9 15 0.00000 -35.19170 10.54421 3.88749
465 9 16 0.00000 -36.43471 10.38116 3.09353
466 9 15 0.50000 -11.05171 11.27474 23.02201
467 9 4 -0.70000 -9.79155 11.00808 22.65365
468 9 12 0.80000 -9.53361 10.50250 21.43164
469 9 1 -0.60000 -8.38482 10.33821 20.98522
470 9 15 0.00000 -10.66088 10.17934 20.61374
471 9 15 0.00000 -11.93208 9.84605 19.85259
472 9 15 0.00000 -13.21761 9.47235 19.13724
473 9 15 0.00000 -14.49076 9.07759 18.40962
474 9 15 0.00000 -15.75398 8.71420 17.64559
475 9 15 0.00000 -17.01451 8.41916 16.84568
476 9 15 0.00000 -18.27140 8.19577 16.01482
477 9 15 0.00000 -19.51388 8.02518 15.14854
478 9 15 0.00000 -20.72662 7.88935 14.23278
479 9 15 0.00000 -21.89652 7.78632 13.25900
480 9 15 0.00000 -23.02761 7.73041 12.23463
481 9 15 0.00000 -24.13656 7.74062 11.18268
482 9 15 0.00000 -25.24318 7.81978 10.13114
483 9 15 0.00000 -26.35973 7.94816 9.09361
484 9 15 0.00000 -27.48508 8.09703 8.06436
485 9 15 0.00000 -28.58291 8.15571 7.00454
486 9 16 0.00000 -29.72699 8.37429 5.99759
487 10 16 0.40000 -21.77799 -6.53672 30.55593
488 10 16 0.40000 -23.45928 -8.19708 30.76432
489 10 16 0.40000 -23.86642 -6.23908 29.45750
490 10 8 -0.50000 -22.85687 -7.23137 29.83225
491 10 15 0.30000 -22.32779 -7.93747 28.66180
492 10 15 0.40000 -21.99305 -8.75380 27.39634
493 10 3 -0.80000 -22.13651 -9.40793 26.23306
494 10 30 1.70000 -23.46736 -8.83112 25.42158
495 10 2 -0.80000 -22.96826 -7.70994 24.54447
496 10 2 -0.80000 -24.46215 -8.51756 26.53088
497 10 3 -0.70000 -23.95040 -10.11699 24.49794
498 10 15 0.40000 -25.20423 -10.12420 23.96259
499 10 14 0.30000 -26.66315 -10.06899 23.79997
500 10 4 -0.70000 -27.42488 -9.94373 22.52380
501 10 12 0.70000 -28.24115 -11.01224 22.05395
502 10 1 -0.70000 -28.08589 -12.16383 22.45091
503 10 15 0.00000 -29.40186 -10.74813 21.01764
504 10 15 0.00000 -30.83486 -10.72675 19.86828
505 10 15 0.00000 -32.28442 -10.73623 18.71937
506 10 15 0.00000 -33.73043 -10.72391 17.55308
507 10 15 0.00000 -35.16242 -10.68092 16.36523
508 10 15 0.00000 -36.57608 -10.60928 15.15703
509 10 15 0.00000 -37.96783 -10.51301 13.93047
510 10 15 0.00000 -39.33380 -10.39409 12.69171
511 10 15 0.00000 -40.66753 -10.26153 11.44407
512 10 15 0.00000 -41.96023 -10.11936 10.19417
513 10 15 0.00000 -43.20099 -9.97160 8.94788
514 10 15 0.00000 -44.37509 -9.81629 7.71572
515 10 15 0.00000 -45.47709 -9.66950 6.49615
516 10 15 0.00000 -46.51855 -9.53614 5.28556
517 10 15 0.00000 -47.51712 -9.41906 4.08562
518 10 15 0.00000 -48.66202 -9.25600 2.85540
519 10 16 0.00000 -49.55716 -9.16864 1.67509
520 10 15 0.50000 -27.19469 -9.40498 24.95821
521 10 4 -0.70000 -27.34740 -8.83090 26.15900
522 10 12 0.80000 -28.40927 -8.03814 26.40278
523 10 1 -0.60000 -28.67125 -7.56689 27.52317
524 10 15 0.00000 -29.28292 -7.77017 25.30322
525 10 15 0.00000 -30.11711 -7.53197 24.05672
526 10 15 0.00000 -30.90074 -7.26747 22.78394
527 10 15 0.00000 -31.69078 -6.97783 21.51978
528 10 15 0.00000 -32.52104 -6.70866 20.27490
529 10 15 0.00000 -33.39896 -6.49687 19.05005
530 10 15 0.00000 -34.32023 -6.34650 17.84645
531 10 15 0.00000 -35.28430 -6.23649 16.67097
532 10 15 0.00000 -36.29953 -6.14363 15.53586
533 10 15 0.00000 -37.37226 -6.06175 14.45414
534 10 15 0.00000 -38.49845 -6.00690 13.42433
535 10 15 0.00000 -39.66140 -6.00536 12.43236
536 10 15 0.00000 -40.83682 -6.06956 11.45723
537 10 15 0.00000 -42.00921 -6.18579 10.48171
538 10 15 0.00000 -43.17852 -6.32509 9.50129
539 10 15 0.00000 -44.35702 -6.36622 8.53106
540 10 16 0.00000 -45.52023 -6.58064 7.54535
541 11 16 0.40000 17.27722 -7.22525 26.03738
542 11 16 0.40000 15.11708 -6.58270 26.77759
543 11 16 0.40000 15.63348 -6.57766 24.44507
544 11 8 -0.50000 15.84245 -7.28704 25.70895
545 11 15 0.30000 15.38512 -8.67761 25.63402
546 11 15 0.40000 14.69035 -10.04956 25.51195
547 11 3 -0.80000 13.79479 -10.99406 25.18396
548 11 30 1.70000 12.95440 -10.52837 23.82777
549 11 2 -0.80000 13.72304 -11.07663 22.65130
550 11 2 -0.80000 12.81670 -9.02015 23.98518
551 11 3 -0.70000 11.50092 -11.30523 23.98192
552 11 15 0.40000 10.43784 -10.89257 23.23472
553 11 14 0.30000 9.39237 -10.06899 22.61292
554 11 4 -0.70000 8.51530 -10.43940 21.46485
555 11 12 0.70000 7.11345 -10.61556 21.64534
556 11 1 -0.70000 6.62821 -10.82539 22.75365
557 11 15 0.00000 6.12194 -10.52004 20.42112
558 11 15 0.00000 4.74876 -10.41426 19.20532
559 11 15 0.00000 3.34465 -10.30818 18.00594
560 11 15 0.00000 1.95104 -10.20911 16.78144
561 11 15 0.00000 0.57952 -10.12357 15.52644
562 11 15 0.00000 -0.76776 -10.05410 14.24451
563 11 15 0.00000 -2.09015 -10.00295 12.94092
564 11 15 0.00000 -3.38414 -9.96888 11.62223
565 11 15 0.00000 -4.64979 -9.95672 10.29896
566 11 15 0.00000 -5.88124 -9.96871 8.98105
567 11 15 0.00000 -7.07144 -10.00900 7.67860
568 11 15 0.00000 -8.20532 -10.07883 6.40178
569 11 15 0.00000 -9.28968 -10.18813 5.16261
570 11 15 0.00000 -10.33694 -10.33381 3.95847
571 11 15 0.00000 -11.36077 -10.50456 2.78657
572 11 15 0.00000 -12.46857 -10.58879 1.51516
573 11 16 0.00000 -13.43186 -10.82099 0.41053
574 11 15 0.50000 9.81744 -8.69965 22.70873
575 11 4 -0.70000 10.46651 -7.56951 23.01905
576 11 12 0.80000 10.29857 -6.46217 22.27003
577 11 1 -0.60000 10.77954 -5.35425 22.56529
578 11 15 0.00000 9.49070 -6.59032 21.09741
579 11 15 0.00000 8.64350 -6.85615 19.86534
580 11 15 0.00000 7.83981 -7.16329 18.61485
581 11 15 0.00000 7.05028 -7.45187 17.35014
582 11 15 0.00000 6.22589 -7.70856 16.09872
583 11 15 0.00000 5.33842 -7.94066 14.88449
584 11 15 0.00000 4.38876 -8.15138 13.71242
585 11 15 0.00000 3.39281 -8.32913 12.57234
586 11 15 0.00000 2.36334 -8.45226 11.45304
587 11 15 0.00000 1.30406 -8.50555 10.35639
588 11 15 0.00000 0.20722 -8.49802 9.29399
589 11 15 0.00000 -0.93662 -8.45894 8.28079
590 11 15 0.00000 -2.12508 -8.42246 7.32014
591 11 15 0.00000 -3.34430 -8.40577 6.39663
592 11 15 0.00000 -4.57750 -8.40226 5.48716
593 11 15 0.00000 -5.75199 -8.35261 4.51249
594 11 16 0.00000 -7.02992 -8.38205 3.65420
595 12 16 0.40000 1.42123 -21.17877 26.66470
596 12 16 0.40000 1.75134 -19.98906 24.63921
597 12 16 0.40000 0.03104 -21.63980 24.79080
598 12 8 -0.50000 0.72492 -20.57364 25.51613
599 12 15 0.30000 -0.20021 -19.52726 25.96075
600 12 15 0.40000 -1.21951 -18.39409 26.19910
601 12 3 -0.80000 -2.23302 -17.53638 26.00211
602 12 30 1.70000 -3.30634 -18.17346 24.90461
603 12 2 -0.80000 -4.32422 -18.93967 25.71227
604 12 2 -0.80000 -2.41894 -18.92743 23.92354
605 12 3 -0.70000 -4.00079 -16.83812 24.21577
606 12 15 0.40000 -4.67692 -16.96608 23.03882
607 12 14 0.30000 -5.02984 -17.28009 21.64786
608 12 4 -0.70000 -6.39021 -17.26527 21.03655
609 12 12 0.70000 -6.73059 -16.30812 20.03816
610 12 1 -0.70000 -6.09017 -15.27005 19.89630
611 12 15 0.00000 -7.93677 -16.56159 19.05236
612 12 15 0.00000 -9.23735 -16.61395 17.75592
613 12 15 0.00000 -10.53326 -16.64042 16.43638
614 12 15 0.00000 -11.85007 -16.68298 15.12659
615 12 15 0.00000 -13.19230 -16.74697 13.83906
616 12 15 0.00000 -14.55783 -16.82987 12.57740
617 12 15 0.00000 -15.94348 -16.92756 11.34407
618 12 15 0.00000 -17.34234 -17.03879 10.14184
619 12 15 0.00000 -18.74857 -17.15439 8.97470
620 12 15 0.00000 -20.15377 -17.27024 7.84976
621 12 15 0.00000 -21.55008 -17.38159 6.77622
622 12 15 0.00000 -22.92581 -17.48972 5.76800
623 12 15 0.00000 -24.27851 -17.57786 4.82685
624 12 15 0.00000 -25.61211 -17.64285 3.94071
625 12 15 0.00000 -26.92664 -17.68600 3.09168
626 12 15 0.00000 -28.29840 -17.79598 2.11342
627 12 16 0.00000 -29.57477 -17.79414 1.35651
628 12 15 0.50000 -4.10826 -18.28411 21.19224
629 12 4 -0.70000 -3.07927 -19.13471 21.08062
630 12 12 0.80000 -3.13850 -20.16208 20.21087
631 12 1 -0.60000 -2.18029 -20.91885 19.97610
632 12 15 0.00000 -4.37072 -20.34615 19.50953
633 12 15 0.00000 -5.73452 -20.46042 18.85122
634 12 15 0.00000 -7.12283 -20.58343 18.25001
635 12 15 0.00000 -8.50873 -20.73364 17.64763
636 12 15 0.00000 -9.87680 -20.87697 17.00003
637 12 15 0.00000 -11.21969 -20.97996 16.29159
638 12 15 0.00000 -12.53484 -21.03816 15.52544
639 12 15 0.00000 -13.81984 -21.07308 14.70638
640 12 15 0.00000 -15.06859 -21.11130 13.83062
641 12 15 0.00000 -16.27050 -21.16295 12.89238
642 12 15 0.00000 -17.42322 -21.21159 11.89203
643 12 15 0.00000 -18.53295 -21.22558 10.84095
644 12 15 0.00000 -19.61446 -21.18336 9.76152
645 12 15 0.00000 -20.68531 -21.09089 8.67324
646 12 15 0.00000 -21.75582 -20.97470 7.58308
647 12 15 0.00000 -22.83767 -20.95619 6.50552
648 12 16 0.00000 -23.89718 -20.76603 5.40465
649 13 16 0.40000 -18.37340 -19.38140 25.76302
650 13 16 0.40000 -19.04654 -17.29730 24.85175
651 13 16 0.40000 -19.63730 -19.33249 23.74885
652 13 8 -0.50000 -19.46623 -18.69261 25.05483