LAMMPS data file via write_data, version 15 May 2015, timestep = 20000001

14592 atoms
58 atom types
11904 bonds
54 bond types
10368 angles
55 angle types
6016 dihedrals
43 dihedral types
384 impropers
3 improper types

-3.0597093516405049e+01 3.0597093516405049e+01 xlo xhi
-2.5851672513239929e+01 2.5851672513239929e+01 ylo yhi
-3.7090924633166530e+01 3.7090924633166530e+01 zlo zhi

Masses

1 15.9994
2 15.9994
3 15.9994
4 15.9994
5 15.9994
6 14.0067
7 14.0067
8 14.0067
9 14.0067
10 14.0067
11 14.0067
12 12.011
13 12.011
14 13.019
15 14.027
16 15.035
17 16.043
18 14.027
19 13.019
20 1.008
21 1.008
22 999
23 32.06
24 63.546
25 63.546
26 55.847
27 65.37
28 24.305
29 40.08
30 30.9738
31 39.948
32 18.9984
33 35.453
34 79.904
35 15.035
36 15.9994
37 22.9898
38 35.453
39 12.011
40 35.453
41 1.008
42 32.06
43 15.035
44 15.9994
45 12.011
46 35.453
47 18.9984
48 12.011
49 14.027
50 15.9994
51 12.011
52 15.9994
53 14.0067
54 28.08
55 999
56 999
57 15.994
58 1.008

Pair Coeffs # lj/cut/coul/long/gpu

1 0.30699 2.7601
2 0.41401 2.6259
3 0.25371 2.8492
4 0.25371 2.8492
5 0.15604 3.1656
6 0.15355 3.1365
7 0.15355 3.1365
8 0.15355 3.1365
9 0.15355 3.1365
10 0.15355 3.1365
11 0.15355 3.1365
12 0.066577 3.5812
13 0.0016789 6.6395
14 0.022773 5.0192
15 0.09853 4.0704
16 0.20812 3.7479
17 0.30682 3.7028
18 0.11503 3.9547
19 0.14617 3.6818
20 0.028411 2.3734
21 0 0
22 0 0
23 0.039532 2.309
24 0 0
25 0 1
26 0 0
27 0 0
28 0 0
29 0 0
30 0.58722 3.3856
31 0 0
32 0 0
33 0 0
34 0 0
35 0 0
36 0 0
37 0 0
38 0 0
39 0 0
40 0 0
41 0 0
42 0 0
43 0 0
44 0 0
45 0 0
46 0 0
47 0 0
48 0 0
49 0 0
50 0 0
51 0 0
52 0 0
53 0 0
54 0 0
55 0 0
56 0 0
57 0.15543 3.1655
58 0 0

Bond Coeffs # harmonic

1 375.23 1
2 446.93 1
3 349.266 1.09
4 1109.27 1.12
5 600.228 1.23
6 500.406 1.25
7 499.72 1.32
8 374.994 1.33
9 448.133 1.33
10 498.865 1.33
11 450.606 1.34
12 502.104 1.34
13 450.896 1.36
14 500.667 1.38
15 399.894 1.39
16 498.714 1.39
17 400.048 1.4
18 399.782 1.43
19 450.121 1.43
20 300.214 1.435
21 449.832 1.47
22 299.969 1.48
23 399.958 1.48
24 450.215 1.48
25 450.097 1.5
26 299.837 1.52
27 400.025 1.53
28 299.844 1.61
29 299.72 1.63
30 205.971 1.78
31 449.805 1.78
32 449.818 1.83
33 300.038 1.87
34 59.9664 1.98
35 60.0368 2
36 500.295 2.04
37 63.0342 2.21
38 554.48 1
39 349.92 1.1
40 599.78 1.758
41 449.818 1.53
42 444.33 1.938
43 599.664 1.76
44 501.014 1.265
45 448.645 1.35
46 555.115 1.633
47 350.241 2.3384
48 600.147 2.9028
49 445.873 2.7939
50 443.805 2.9119
51 409.318 2.077
52 600.159 2.8741
53 527.1 1
54 629.318 0.94

Improper Coeffs # harmonic

1 20.0071 0
2 40.0141 35.2644
3 80.0282 0

Atoms # full

14464 2646 57 -8.1999999999999995e-01 -2.9721887023074398e+01 -1.6327403974333158e+01 -3.2608623595377892e+01 -1 -4 0
14465 2646 58 4.0999999999999998e-01 -2.9564707700948212e+01 -1.7177378013176870e+01 -3.2105796228812849e+01 -1 -4 0
14466 2646 58 4.0999999999999998e-01 -2.9639476529847286e+01 -1.5550316707941430e+01 -3.1984650534540719e+01 -1 -4 0
13133 2202 58 4.0999999999999998e-01 -2.3853135408583860e+01 -2.2098279113502834e+01 -2.8428440105247937e+01 -1 -11 0
12717 2063 58 4.0999999999999998e-01 -2.3207221225259968e+01 -1.3267075700954608e+01 -3.2862742916579698e+01 4 -7 0
9861 1111 58 4.0999999999999998e-01 -2.3553276393544827e+01 -1.7689434166591610e+01 -3.5970676151981991e+01 2 0 1
13944 2472 58 4.0999999999999998e-01 -2.5739180181605139e+01 -2.1724816692337882e+01 -3.4418557408743034e+01 8 2 0
13942 2472 57 -8.1999999999999995e-01 -2.6255647970239263e+01 -2.1246868740647674e+01 -3.3708045059252527e+01 8 2 0
10194 1222 58 4.0999999999999998e-01 -2.5087366856328181e+01 -1.7752451324878216e+01 -3.0021424168317864e+01 -5 0 1
10192 1222 57 -8.1999999999999995e-01 -2.5677418051010456e+01 -1.8559515074387718e+01 -3.0043382610239700e+01 -5 0 1
10193 1222 58 4.0999999999999998e-01 -2.5145081383953467e+01 -1.9369047505193858e+01 -2.9795855359744575e+01 -5 0 1
9859 1111 57 -8.1999999999999995e-01 -2.4455393400091225e+01 -1.7441670626570929e+01 -3.6323941235010082e+01 2 0 1
9860 1111 58 4.0999999999999998e-01 -2.5162886781533203e+01 -1.7813560402188934e+01 -3.5722982719812656e+01 2 0 1
11038 1504 57 -8.1999999999999995e-01 -2.1519625708506886e+01 -1.4398507548673072e+01 -3.3466889651959391e+01 -9 6 0
11039 1504 58 4.0999999999999998e-01 -2.0747134282578852e+01 -1.4593191793025621e+01 -3.4071335942869247e+01 -9 6 0
11040 1504 58 4.0999999999999998e-01 -2.1712367365466314e+01 -1.5201155769121232e+01 -3.2902437846650521e+01 -9 6 0
10587 1353 58 4.0999999999999998e-01 -2.6020710762322949e+01 -2.1255308223077598e+01 -2.8547349437388021e+01 -1 -5 1
13132 2202 57 -8.1999999999999995e-01 -2.4197490412457505e+01 -2.1159441314110403e+01 -2.8429408841957404e+01 -1 -11 0
10585 1353 57 -8.1999999999999995e-01 -2.6989062474489060e+01 -2.1436544206934499e+01 -2.8718955142237924e+01 -1 -5 1
10236 1236 58 4.0999999999999998e-01 -2.1087035540169310e+01 -1.7228677623839751e+01 -3.2055772661887126e+01 -6 14 1
8512 662 57 -8.1999999999999995e-01 -2.8227435352890211e+01 -2.2422647190903255e+01 -3.0925062219303616e+01 10 -1 1
13943 2472 58 4.0999999999999998e-01 -2.5939856521582037e+01 -2.1545860058132476e+01 -3.2807553923185480e+01 8 2 0
9248 907 58 4.0999999999999998e-01 -2.6296437860339552e+01 -1.9780053425537162e+01 -3.4575961808167598e+01 -1 -2 1
10417 1297 57 -8.1999999999999995e-01 -2.5351837393676224e+01 -2.2004811913351595e+01 -3.1291404564742713e+01 3 -4 1
10144 1206 57 -8.1999999999999995e-01 -2.3944792064955458e+01 -1.6625235174109896e+01 -2.9771379615502383e+01 -5 -7 1
10146 1206 58 4.0999999999999998e-01 -2.3831284372241804e+01 -1.7185349120709596e+01 -2.8950775988424763e+01 -5 -7 1
12684 2052 58 4.0999999999999998e-01 -2.9738660889189628e+01 -2.0923366772150292e+01 -2.9321298688698327e+01 1 -9 0
11999 1824 58 4.0999999999999998e-01 -3.0450826150608279e+01 -1.8285584887535894e+01 -3.5431906498319108e+01 1 6 0
9247 907 57 -8.1999999999999995e-01 -2.6446361329106121e+01 -1.8876743205860866e+01 -3.4977898274069730e+01 -1 -2 1
10418 1297 58 4.0999999999999998e-01 -2.5641173440887712e+01 -2.2828006690017418e+01 -3.1779910392232381e+01 3 -4 1
9249 907 58 4.0999999999999998e-01 -2.6594625977547000e+01 -1.8207746522391464e+01 -3.4249569765046303e+01 -1 -2 1
10234 1236 57 -8.1999999999999995e-01 -2.1648826622710281e+01 -1.6516605701869075e+01 -3.1634654201298140e+01 -6 14 1
10235 1236 58 4.0999999999999998e-01 -2.2438541713193256e+01 -1.6935776565289192e+01 -3.1186720604469109e+01 -6 14 1
10419 1297 58 4.0999999999999998e-01 -2.5633632932980259e+01 -2.2068392807399405e+01 -3.0334035681958404e+01 3 -4 1
8841 771 58 4.0999999999999998e-01 -2.6971083059742043e+01 -1.9953008720802760e+01 -3.2716038689431436e+01 -5 4 1
10536 1336 58 4.0999999999999998e-01 -2.5667671372773189e+01 -2.5125778238089172e+01 -3.1983944463296041e+01 5 1 1
12482 1985 58 4.0999999999999998e-01 -2.6851758600524523e+01 -1.7785409839010129e+01 -2.8965501459804873e+01 -4 2 0
13134 2202 58 4.0999999999999998e-01 -2.3600017624849695e+01 -2.0584172108626309e+01 -2.7870756345010253e+01 -1 -11 0
10145 1206 58 4.0999999999999998e-01 -2.3959118483543676e+01 -1.5658432298066138e+01 -2.9516269293434974e+01 -5 -7 1
10534 1336 57 -8.1999999999999995e-01 -2.5797715956477830e+01 -2.4349995884194293e+01 -3.2601398482691295e+01 5 1 1
8840 771 58 4.0999999999999998e-01 -2.6731662022764539e+01 -1.8983171005813912e+01 -3.1423865764907802e+01 -5 4 1
8513 662 58 4.0999999999999998e-01 -2.8292729444208792e+01 -2.3409296880583824e+01 -3.0775882940508406e+01 10 -1 1
14166 2546 58 4.0999999999999998e-01 -3.0593751262968635e+01 -2.4602754030796341e+01 -2.8844548911443667e+01 5 6 0
10160 1211 58 4.0999999999999998e-01 -3.0228170314782766e+01 -1.3062049748027249e+01 -2.7841501363455368e+01 1 -14 1
10586 1353 58 4.0999999999999998e-01 -2.7539408272311668e+01 -2.1026495566868569e+01 -2.7991641784675267e+01 -1 -5 1
8839 771 57 -8.1999999999999995e-01 -2.7302597986268339e+01 -1.9145159534743865e+01 -3.2228724271221338e+01 -5 4 1
12326 1933 58 4.0999999999999998e-01 -2.7583844321841685e+01 -1.8881796169413345e+01 -3.6408679577310629e+01 1 -1 0
8514 662 58 4.0999999999999998e-01 -2.7711579987269303e+01 -2.2005344830531698e+01 -3.0176894131885195e+01 10 -1 1
8524 666 57 -8.1999999999999995e-01 -2.9612280098882028e+01 -1.6043826225850061e+01 -2.9583516687229910e+01 1 -4 1
8525 666 58 4.0999999999999998e-01 -2.8924499770135228e+01 -1.6593934136581851e+01 -2.9109872883422021e+01 1 -4 1
9911 1128 58 4.0999999999999998e-01 -2.3657019537442672e+01 -1.3112917950328479e+01 -2.9812008976217811e+01 -3 -1 1
11608 1694 57 -8.1999999999999995e-01 -2.3920540431652519e+01 -2.3859250062603749e+01 -2.8361738750380844e+01 -2 -14 0
8911 795 57 -8.1999999999999995e-01 -2.2293073373218760e+01 -2.2873743430795084e+01 -3.5196518636787900e+01 8 -2 1
11610 1694 58 4.0999999999999998e-01 -2.3518446352613633e+01 -2.4134901619451096e+01 -2.9234860379552696e+01 -2 -14 0
8526 666 58 4.0999999999999998e-01 -2.9624525635306725e+01 -1.5120948049495349e+01 -2.9198619628833050e+01 1 -4 1
7507 327 57 -8.1999999999999995e-01 -2.8325490458655619e+01 -2.3470526828315208e+01 -3.4172025890465910e+01 -3 -3 1
10161 1211 58 4.0999999999999998e-01 -2.9222542328409965e+01 -1.3203001608739928e+01 -2.9120745209448280e+01 1 -14 1
10159 1211 57 -8.1999999999999995e-01 -3.0047155101512740e+01 -1.3565428774043948e+01 -2.8686396193582212e+01 1 -14 1
9910 1128 57 -8.1999999999999995e-01 -2.4398096332841426e+01 -1.3734781854912164e+01 -2.9558853773191423e+01 -3 -1 1
7508 327 58 4.0999999999999998e-01 -2.8314086713300735e+01 -2.4326284451815997e+01 -3.3654777986162074e+01 -3 -3 1
8913 795 58 4.0999999999999998e-01 -2.2431707437796916e+01 -2.2352621392399278e+01 -3.4354369631373231e+01 8 -2 1
9084 852 58 4.0999999999999998e-01 -2.9628049755366938e+01 -2.2121244337227363e+01 -3.1961903752520204e+01 10 5 1
13610 2361 58 4.0999999999999998e-01 -2.8609903451316828e+01 -1.4959647473191657e+01 -3.5819280247758812e+01 2 4 0
13716 2396 58 4.0999999999999998e-01 -2.6209064377758875e+01 -1.3201437569221156e+01 -2.8845081083543267e+01 -2 -11 0
8912 795 58 4.0999999999999998e-01 -2.3160449866709296e+01 -2.2950437138432093e+01 -3.5688225061621637e+01 8 -2 1
7509 327 58 4.0999999999999998e-01 -2.7808099092328224e+01 -2.2773499982424909e+01 -3.3675581556241639e+01 -3 -3 1
10316 1263 58 4.0999999999999998e-01 -2.4947604856347212e+01 -2.4146846939836131e+01 -3.5284419828780891e+01 -7 -6 1
14164 2546 57 -8.1999999999999995e-01 -3.0139371261591329e+01 -2.3994915498884055e+01 -2.8193341366295087e+01 5 6 0
12000 1824 58 4.0999999999999998e-01 -3.0366040936616237e+01 -1.7176139275549641e+01 -3.4236266541150258e+01 1 6 0
14165 2546 58 4.0999999999999998e-01 -2.9169609657788861e+01 -2.3921373110243987e+01 -2.8426045880325603e+01 5 6 0
10315 1263 57 -8.1999999999999995e-01 -2.5150201707147470e+01 -2.3167624940517356e+01 -3.5292942637057401e+01 -7 -6 1
10317 1263 58 4.0999999999999998e-01 -2.5308726426311271e+01 -2.2867723187781397e+01 -3.6233651769368450e+01 -7 -6 1
9828 1100 58 4.0999999999999998e-01 -2.0855791202864616e+01 -1.8147763741378586e+01 -3.7002941375928231e+01 2 8 1
7037 170 58 4.0999999999999998e-01 -2.7845192053762108e+01 -2.5474862434894103e+01 -3.0219447425843569e+01 -4 4 1
9912 1128 58 4.0999999999999998e-01 -2.4178895487845992e+01 -1.4179190007295627e+01 -2.8690258656725881e+01 -3 -1 1
12481 1985 57 -8.1999999999999995e-01 -2.7504769622383861e+01 -1.7586394629382511e+01 -2.8234766024279303e+01 -4 2 0
7791 421 58 4.0999999999999998e-01 -2.0965877460272264e+01 -1.7602477009676623e+01 -3.4929890958986533e+01 3 6 1
8104 526 57 -8.1999999999999995e-01 -2.2702641236927413e+01 -2.2373698264719369e+01 -3.2132955614483230e+01 4 10 1
8106 526 58 4.0999999999999998e-01 -2.2686490517729450e+01 -2.3177239503021703e+01 -3.1537925832708794e+01 4 10 1
8105 526 58 4.0999999999999998e-01 -2.3617741127053570e+01 -2.1970557263712372e+01 -3.2124690211954039e+01 4 10 1
7789 421 57 -8.1999999999999995e-01 -2.1746911436750061e+01 -1.8141889654438408e+01 -3.5244567085949328e+01 3 6 1
7790 421 58 4.0999999999999998e-01 -2.1892077517235499e+01 -1.8912516385580133e+01 -3.4624032402465012e+01 3 6 1
13243 2239 57 -8.1999999999999995e-01 -2.0526904498914185e+01 -2.0726010885250350e+01 -2.9704877299345096e+01 3 -8 0
13245 2239 58 4.0999999999999998e-01 -2.1351925434837192e+01 -2.0836318061430433e+01 -3.0259108483159551e+01 3 -8 0
13013 2162 58 4.0999999999999998e-01 -2.1494526167103047e+01 -2.0549080723679737e+01 -3.2744778813244629e+01 -8 -8 0
9482 985 58 4.0999999999999998e-01 -2.0768531535000193e+01 -2.3895677298060995e+01 -3.5534634270699165e+01 -2 3 1
14279 2584 58 4.0999999999999998e-01 -2.0483694464638788e+01 -1.5785164114791732e+01 -3.0546573257722763e+01 -2 -1 0
13609 2361 57 -8.1999999999999995e-01 -2.8350179359197465e+01 -1.5215090292991556e+01 -3.6750568179831930e+01 2 4 0
13012 2162 57 -8.1999999999999995e-01 -2.0927645000763714e+01 -1.9753264486782999e+01 -3.2957657195771240e+01 -8 -8 0
12092 1855 58 4.0999999999999998e-01 -2.8739702065577941e+01 -2.0235594022131060e+01 -3.5160976039879522e+01 3 3 0
8249 574 58 4.0999999999999998e-01 -2.3220529458835738e+01 -2.5762853569827382e+01 -3.2050660716416566e+01 -1 3 1
10078 1184 57 -8.1999999999999995e-01 -2.8946391422252262e+01 -2.3540200986261631e+01 -3.6965505499069273e+01 3 0 1
9736 1070 57 -8.1999999999999995e-01 -2.4617859590174515e+01 -2.5809149012854430e+01 -3.5219038865879106e+01 5 -2 1
7123 199 57 -8.1999999999999995e-01 -2.2407790399617785e+01 -2.4834758471622571e+01 -3.0435517515852460e+01 -4 3 1
7038 170 58 4.0999999999999998e-01 -2.8352655266144485e+01 -2.5747891530612371e+01 -3.1747702639949072e+01 -4 4 1
12490 1988 57 -8.1999999999999995e-01 -3.0065071808967016e+01 -1.9229522088130050e+01 -3.1950621613941795e+01 -7 5 0
9082 852 57 -8.1999999999999995e-01 -3.0382810563245442e+01 -2.1751268830638139e+01 -3.2503620541687866e+01 10 5 1
7125 199 58 4.0999999999999998e-01 -2.2627043713976128e+01 -2.5801073340990268e+01 -3.0300768206527746e+01 -4 3 1
13714 2396 57 -8.1999999999999995e-01 -2.7147853528161949e+01 -1.3328980713616540e+01 -2.8525072240385548e+01 -2 -11 0
12492 1988 58 4.0999999999999998e-01 -3.0265026759009572e+01 -2.0197091138826401e+01 -3.2104965778400420e+01 -7 5 0
12491 1988 58 4.0999999999999998e-01 -2.9074902817242506e+01 -1.9095576998607111e+01 -3.1910359319904202e+01 -7 5 0
7124 199 58 4.0999999999999998e-01 -2.1428386312234952e+01 -2.4691676556826845e+01 -3.0293067385387740e+01 -4 3 1
7036 170 57 -8.1999999999999995e-01 -2.8412632198567540e+01 -2.5127258662761651e+01 -3.0965896169654847e+01 -4 4 1
12091 1855 57 -8.1999999999999995e-01 -2.9722552436244051e+01 -2.0359818363546413e+01 -3.5297250050373428e+01 3 3 0
11609 1694 58 4.0999999999999998e-01 -2.4466361959216119e+01 -2.4611755643942733e+01 -2.7993214165190441e+01 -2 -14 0
10535 1336 58 4.0999999999999998e-01 -2.6482920833744970e+01 -2.4583636331478477e+01 -3.3291259237994140e+01 5 1 1
9538 1004 57 -8.1999999999999995e-01 -2.2278883531046464e+01 -1.3340565031003329e+01 -3.6276396920573809e+01 2 6 1
10080 1184 58 4.0999999999999998e-01 -2.8789671772120318e+01 -2.3689423820794435e+01 -3.5989197149939038e+01 3 0 1
9083 852 58 4.0999999999999998e-01 -3.0261314499184390e+01 -2.2005889511819866e+01 -3.3463002012834224e+01 10 5 1
8502 658 58 4.0999999999999998e-01 -2.1267327603894028e+01 -2.5761266746072629e+01 -3.5201979532805872e+01 6 -8 1
9540 1004 58 4.0999999999999998e-01 -2.2247975103369313e+01 -1.3830479748639370e+01 -3.5405171833198999e+01 2 6 1
12093 1855 58 4.0999999999999998e-01 -2.9898634097602759e+01 -2.0609139906251571e+01 -3.6249532598521789e+01 3 3 0
11155 1543 57 -8.1999999999999995e-01 -1.6663632876516175e+01 -2.5817862512357621e+01 -3.6918629987038294e+01 -4 5 0
14554 2676 57 -8.1999999999999995e-01 -1.7983261382835920e+01 -1.4001418621953260e+01 -3.2185413489194367e+01 6 3 0
13244 2239 58 4.0999999999999998e-01 -2.0295198411415591e+01 -1.9755346993336588e+01 -2.9640696283932371e+01 3 -8 0
8283 585 58 4.0999999999999998e-01 -1.3438944170659990e+01 -1.6133060666760407e+01 -3.7022633350079957e+01 6 -9 1
8623 699 57 -8.1999999999999995e-01 -1.5179562507215815e+01 -2.5419588629029302e+01 -3.4377167672887637e+01 2 -4 1
13630 2368 57 -8.1999999999999995e-01 -1.0833062621571088e+01 -1.9535263141788008e+01 -3.7020723214814133e+01 -4 9 0
14555 2676 58 4.0999999999999998e-01 -1.7656806992457575e+01 -1.3069242445904520e+01 -3.2341839039147573e+01 6 3 0
7945 473 57 -8.1999999999999995e-01 -1.6103700542560659e+01 -2.4880680923111584e+01 -2.8102958561974695e+01 -2 -1 1
8847 773 58 4.0999999999999998e-01 -1.8461498232773092e+01 -1.8390538820817149e+01 -3.6774054004166054e+01 -5 -2 1
13621 2365 57 -8.1999999999999995e-01 -1.6086328428707283e+01 -2.0742268404268614e+01 -3.5838035647577144e+01 -1 -2 0
8639 704 58 4.0999999999999998e-01 -1.0540813567230529e+01 -2.5552576876929542e+01 -2.9730400669801401e+01 -1 -1 1
11715 1729 58 4.0999999999999998e-01 -1.2645088298331409e+01 -2.5465051932639110e+01 -3.4433405594052878e+01 -2 6 0
8638 704 57 -8.1999999999999995e-01 -1.1220735145044966e+01 -2.5649101472855559e+01 -2.9003493788783530e+01 -1 -1 1
8624 699 58 4.0999999999999998e-01 -1.5742233319467598e+01 -2.5050953581930813e+01 -3.3637226993653101e+01 2 -4 1
12530 2001 58 4.0999999999999998e-01 -1.4132834689883229e+01 -2.0189319333493959e+01 -3.6814888332358620e+01 2 5 0
14556 2676 58 4.0999999999999998e-01 -1.8552782315758606e+01 -1.4289258829835639e+01 -3.2955345879872610e+01 6 3 0
11923 1799 57 -8.1999999999999995e-01 -2.0224917634585061e+01 -1.8090735448255110e+01 -2.8951280542003666e+01 0 2 0
13488 2320 58 4.0999999999999998e-01 -1.1974229843919733e+01 -2.4493449057532576e+01 -3.0449594233183504e+01 -4 5 0
14280 2584 58 4.0999999999999998e-01 -1.9738328106631698e+01 -1.4448140130753131e+01 -2.9977013825827843e+01 -2 -1 0
6953 142 58 4.0999999999999998e-01 -1.3244955772137939e+01 -2.2726441753064162e+01 -3.4886222120051663e+01 -7 4 1
11649 1707 58 4.0999999999999998e-01 -1.2790382362944268e+01 -1.5250410357203009e+01 -3.4436976956524298e+01 -3 12 0
14428 2634 57 -8.1999999999999995e-01 -1.8318350725024604e+01 -1.8862119976698619e+01 -3.1837489461484637e+01 -3 3 0
14429 2634 58 4.0999999999999998e-01 -1.7791263996371352e+01 -1.8034003724553500e+01 -3.1646707577531984e+01 -3 3 0
9483 985 58 4.0999999999999998e-01 -1.9325415669039970e+01 -2.4289118357423224e+01 -3.4878713370608821e+01 -2 3 1
9481 985 57 -8.1999999999999995e-01 -1.9855965853190369e+01 -2.4257188715413541e+01 -3.5725769439846530e+01 -2 3 1
14430 2634 58 4.0999999999999998e-01 -1.7736213276151879e+01 -1.9665130339428970e+01 -3.1709877244515290e+01 -3 3 0
6921 131 58 4.0999999999999998e-01 -1.9650944284925373e+01 -2.2213703325355294e+01 -2.8909064865232629e+01 -1 1 1
12804 2092 58 4.0999999999999998e-01 -1.9374632350209502e+01 -2.4193326691508638e+01 -2.9542094935713969e+01 0 0 0
11383 1619 57 -8.1999999999999995e-01 -1.5078849189428372e+01 -1.9093460505278323e+01 -3.3766444867485220e+01 -3 -10 0
11385 1619 58 4.0999999999999998e-01 -1.5238784904220063e+01 -1.9743154856809038e+01 -3.4509628646004735e+01 -3 -10 0
11384 1619 58 4.0999999999999998e-01 -1.5579593397007210e+01 -1.9387622452846731e+01 -3.2952363848932933e+01 -3 -10 0
6919 131 57 -8.1999999999999995e-01 -1.9150621963265657e+01 -2.2910290837923327e+01 -2.8394826256556115e+01 -1 1 1
11252 1575 58 4.0999999999999998e-01 -1.4731361198379611e+01 -1.3438558894567587e+01 -3.6267537664102981e+01 -3 3 0
13486 2320 57 -8.1999999999999995e-01 -1.2633700424713272e+01 -2.4214482972629693e+01 -3.1147647698505764e+01 -4 5 0
12134 1869 58 4.0999999999999998e-01 -1.8523341086897684e+01 -1.7836084329994549e+01 -3.4908626165188863e+01 -1 0 0
14278 2584 57 -8.1999999999999995e-01 -1.9626802354974728e+01 -1.5420476476738859e+01 -3.0182240445518222e+01 -2 -1 0
10341 1271 58 4.0999999999999998e-01 -1.7611140898424932e+01 -2.2599246194193402e+01 -2.9245980024589699e+01 5 6 1
10340 1271 58 4.0999999999999998e-01 -1.6111708242984907e+01 -2.3233010435002001e+01 -2.9113136511751136e+01 5 6 1
10339 1271 57 -8.1999999999999995e-01 -1.6636286021814392e+01 -2.2427036173363565e+01 -2.9387398319247204e+01 5 6 1
11939 1804 58 4.0999999999999998e-01 -1.6515754975109218e+01 -2.1075354219220355e+01 -3.0383448792024964e+01 1 2 0
11938 1804 57 -8.1999999999999995e-01 -1.5972810459086405e+01 -2.0359383789175240e+01 -3.0822305304913680e+01 1 2 0
8315 596 58 4.0999999999999998e-01 -1.9083418576078770e+01 -1.5922020510339394e+01 -3.4350852962813498e+01 -1 5 1
8314 596 57 -8.1999999999999995e-01 -1.8866952540577458e+01 -1.5003629173411605e+01 -3.4682054653279593e+01 -1 5 1
8316 596 58 4.0999999999999998e-01 -1.8116902592279494e+01 -1.5054749196258639e+01 -3.5341457956193459e+01 -1 5 1
7993 489 57 -8.1999999999999995e-01 -1.4688424063274578e+01 -1.8171239923725253e+01 -2.9840307074060267e+01 7 7 1
9722 1065 58 4.0999999999999998e-01 -1.8108240963968086e+01 -1.6145107197130240e+01 -3.0979658229787631e+01 -3 1 1
9723 1065 58 4.0999999999999998e-01 -1.6505234157182173e+01 -1.6020887591535526e+01 -3.0692352481217451e+01 -3 1 1
9721 1065 57 -8.1999999999999995e-01 -1.7229798212919441e+01 -1.6619956042456657e+01 -3.1033119706308035e+01 -3 1 1
6952 142 57 -8.1999999999999995e-01 -1.3229596645042736e+01 -2.3581731306607782e+01 -3.5404141792613224e+01 -7 4 1
11940 1804 58 4.0999999999999998e-01 -1.5016188661183556e+01 -2.0647001530478374e+01 -3.0868650498721742e+01 1 2 0
11446 1640 57 -8.1999999999999995e-01 -1.5683100985402344e+01 -1.6344361978838521e+01 -3.3481496374558041e+01 0 -3 0
11448 1640 58 4.0999999999999998e-01 -1.6373848257002557e+01 -1.6057392581629799e+01 -3.2817780976346299e+01 0 -3 0
11447 1640 58 4.0999999999999998e-01 -1.5627406340526111e+01 -1.7342718122279734e+01 -3.3494808581180557e+01 0 -3 0
7133 202 58 4.0999999999999998e-01 -1.2942683520087837e+01 -2.0747669959519929e+01 -3.1312269455171119e+01 -2 9 1
7995 489 58 4.0999999999999998e-01 -1.4539709891797930e+01 -1.7225169299929423e+01 -3.0128112400335500e+01 7 7 1
7132 202 57 -8.1999999999999995e-01 -1.3636100350482046e+01 -2.1459889046241059e+01 -3.1421431107364036e+01 -2 9 1
7134 202 58 4.0999999999999998e-01 -1.3235745131310562e+01 -2.2351056940980083e+01 -3.1208048410353456e+01 -2 9 1
10983 1485 58 4.0999999999999998e-01 -1.2365465014352420e+01 -1.8710740254719298e+01 -3.2639674178527599e+01 4 -2 0
10981 1485 57 -8.1999999999999995e-01 -1.2461407808308103e+01 -1.8533446095390069e+01 -3.3619149555258176e+01 4 -2 0
7756 410 57 -8.1999999999999995e-01 -1.1486191529755157e+01 -1.6872189328251650e+01 -2.9944605114635234e+01 0 -8 1
10982 1485 58 4.0999999999999998e-01 -1.3363185496869260e+01 -1.8837210504250166e+01 -3.3926600832397199e+01 4 -2 0
11581 1685 57 -8.1999999999999995e-01 -1.4396425531435519e+01 -1.3431283927943923e+01 -2.9028777382836562e+01 3 2 0
13059 2177 58 4.0999999999999998e-01 -1.1016229149744316e+01 -2.0114048120654132e+01 -3.0909415400228678e+01 -8 -1 0
11021 1498 58 4.0999999999999998e-01 -1.1164354939632009e+01 -1.7836078317284041e+01 -3.4703147751764476e+01 0 10 0
7757 410 58 4.0999999999999998e-01 -1.1140248991762643e+01 -1.6565208520932533e+01 -2.9057987677044075e+01 0 -8 1
13014 2162 58 4.0999999999999998e-01 -2.0090634345649679e+01 -1.9783899313555999e+01 -3.2411328803555818e+01 -8 -8 0
13057 2177 57 -8.1999999999999995e-01 -1.1700275413705892e+01 -1.9489119190346450e+01 -3.1285635089047496e+01 -8 -1 0
13058 2177 58 4.0999999999999998e-01 -1.1707589666319084e+01 -1.8642560990281577e+01 -3.0753391639098254e+01 -8 -1 0
11647 1707 57 -8.1999999999999995e-01 -1.3325834323242628e+01 -1.5066277342899019e+01 -3.3612725455262456e+01 -3 12 0
11582 1685 58 4.0999999999999998e-01 -1.4813422296826358e+01 -1.3360418598997382e+01 -2.8122633676613535e+01 3 2 0
13413 2295 58 4.0999999999999998e-01 -1.3856874685136457e+01 -1.5403694054061230e+01 -3.1524243555619584e+01 -2 4 0
13411 2295 57 -8.1999999999999995e-01 -1.4225942420340150e+01 -1.5687872408747417e+01 -3.0639349863332566e+01 -2 4 0
13412 2295 58 4.0999999999999998e-01 -1.4111307613993009e+01 -1.4947816995856567e+01 -2.9976642804666760e+01 -2 4 0
14549 2674 58 4.0999999999999998e-01 -1.2468858781638698e+01 -2.0186396819593575e+01 -3.4529837960727171e+01 0 -3 0
11760 1744 58 4.0999999999999998e-01 -1.5062392826699035e+01 -2.3570904721495641e+01 -3.2397396343996320e+01 2 -3 0
11648 1707 58 4.0999999999999998e-01 -1.4247782809300922e+01 -1.5437327883917387e+01 -3.3723776086158168e+01 -3 12 0
14548 2674 57 -8.1999999999999995e-01 -1.2742507168720895e+01 -2.1147845934983160e+01 -3.4556804649937050e+01 0 -3 0
14550 2674 58 4.0999999999999998e-01 -1.3000542855436695e+01 -2.1447354225415882e+01 -3.3638263197633620e+01 0 -3 0
7994 489 58 4.0999999999999998e-01 -1.5314697797993466e+01 -1.8619634796011582e+01 -3.0478055487842049e+01 7 7 1
9020 831 58 4.0999999999999998e-01 -1.7722243940386768e+01 -1.6411935416222711e+01 -2.8364799405875829e+01 -4 -1 1
12135 1869 58 4.0999999999999998e-01 -1.9242403839937193e+01 -1.8217281712766184e+01 -3.3492554107473332e+01 -1 0 0
12133 1869 57 -8.1999999999999995e-01 -1.9197507137633309e+01 -1.7543758506436717e+01 -3.4230357329085756e+01 -1 0 0
8640 704 58 4.0999999999999998e-01 -1.0756487481006417e+01 -2.5772330691043244e+01 -2.8126398377316804e+01 -1 -1 1
7677 383 58 4.0999999999999998e-01 -1.1020822738526590e+01 -2.2097768142375919e+01 -3.5246278182152842e+01 0 0 1
8625 699 58 4.0999999999999998e-01 -1.4596883211984171e+01 -2.4695400774882646e+01 -3.4745997959882423e+01 2 -4 1
11792 1755 58 4.0999999999999998e-01 -1.7523798908869480e+01 -2.4168875888302018e+01 -3.3066253912789719e+01 9 -4 0
9276 916 58 4.0999999999999998e-01 -1.5933052290433979e+01 -1.5444293467704830e+01 -3.5105228034570473e+01 0 1 1
11791 1755 57 -8.1999999999999995e-01 -1.8048170461657268e+01 -2.4715304324086311e+01 -3.3719287548318384e+01 9 -4 0
11758 1744 57 -8.1999999999999995e-01 -1.6051992245664714e+01 -2.3628331485695668e+01 -3.2265515697074775e+01 2 -3 0
9274 916 57 -8.1999999999999995e-01 -1.6208928474099864e+01 -1.5120583960748052e+01 -3.6010275119776061e+01 0 1 1
11255 1576 58 4.0999999999999998e-01 -1.2321704861996551e+01 -1.3999713834674949e+01 -3.2443026146872427e+01 2 8 0
11254 1576 57 -8.1999999999999995e-01 -1.2536432399235906e+01 -1.3092798397232967e+01 -3.2080542066345330e+01 2 8 0
10720 1398 57 -8.1999999999999995e-01 -1.0205796535357536e+01 -2.5411604822709620e+01 -3.5329579921807451e+01 1 -12 1
11925 1799 58 4.0999999999999998e-01 -1.9706166658232632e+01 -1.7317248275474427e+01 -2.9315438383252250e+01 0 2 0
11924 1799 58 4.0999999999999998e-01 -1.9943657983990139e+01 -1.8266802615954205e+01 -2.8007936205588159e+01 0 2 0
11057 1510 58 4.0999999999999998e-01 -2.0266458817969159e+01 -1.3074610237422814e+01 -2.8646474772267759e+01 -6 6 0
8282 585 58 4.0999999999999998e-01 -1.3493612947184996e+01 -1.7484435198348631e+01 -3.6106989786391381e+01 6 -9 1
8281 585 57 -8.1999999999999995e-01 -1.3104202387937235e+01 -1.6566774790101935e+01 -3.6186067099826161e+01 6 -9 1
7758 410 58 4.0999999999999998e-01 -1.2400569855419707e+01 -1.6496118317238015e+01 -3.0094535843056946e+01 0 -8 1
11020 1498 57 -8.1999999999999995e-01 -1.0258718480847840e+01 -1.7474318330952762e+01 -3.4924402145063596e+01 0 10 0
13632 2368 58 4.0999999999999998e-01 -1.0688849213884055e+01 -1.8736390788611097e+01 -3.6436767141730300e+01 -4 9 0
13622 2365 58 4.0999999999999998e-01 -1.6637720592239248e+01 -1.9960361579837770e+01 -3.6128872668540289e+01 -1 -2 0
8845 773 57 -8.1999999999999995e-01 -1.7519979228845244e+01 -1.8523984471584679e+01 -3.6464644987040259e+01 -5 -2 1
11759 1744 58 4.0999999999999998e-01 -1.6293443834426821e+01 -2.3238964378131346e+01 -3.1376640635537228e+01 2 -3 0
7454 309 58 4.0999999999999998e-01 -1.2095671437767933e+01 -1.2963266865945648e+01 -2.8969936377279573e+01 -3 9 1
12803 2092 58 4.0999999999999998e-01 -1.9382645579665951e+01 -2.5777072617679021e+01 -2.9142994149269835e+01 0 0 0
11793 1755 58 4.0999999999999998e-01 -1.7728838064216450e+01 -2.5662611807447956e+01 -3.3694196941695616e+01 9 -4 0
6954 142 58 4.0999999999999998e-01 -1.3294514261666265e+01 -2.3381235557089177e+01 -3.6381686212148885e+01 -7 4 1
12802 2092 57 -8.1999999999999995e-01 -1.9525060700263126e+01 -2.5120918024875628e+01 -2.9884060592293427e+01 0 0 0
7947 473 58 4.0999999999999998e-01 -1.5119155730060839e+01 -2.5051382124788152e+01 -2.8063825571670847e+01 -2 -1 1
13623 2365 58 4.0999999999999998e-01 -1.6524310503875277e+01 -2.1589670410462976e+01 -3.6138164111960613e+01 -1 -2 0
10547 1340 58 4.0999999999999998e-01 -1.2569327348342746e+01 -2.5667005370117028e+01 -2.8075844636709348e+01 11 -3 1
9275 916 58 4.0999999999999998e-01 -1.6251904969524485e+01 -1.5894049468271227e+01 -3.6642654097319877e+01 0 1 1
14433 2635 58 4.0999999999999998e-01 -1.4100189970791902e+01 -1.8022273827013141e+01 -2.8144759924891293e+01 -2 -2 0
13487 2320 58 4.0999999999999998e-01 -1.2973916533457835e+01 -2.5023124115529065e+01 -3.1627595582079810e+01 -4 5 0
10721 1398 58 4.0999999999999998e-01 -1.0707993838954980e+01 -2.5346304914000736e+01 -3.6191866092530340e+01 1 -12 1
12531 2001 58 4.0999999999999998e-01 -1.2657165582230846e+01 -1.9528134487090586e+01 -3.7044755840624298e+01 2 5 0
13870 2448 57 -8.1999999999999995e-01 -7.7478028017727638e+00 -1.3121178152875615e+01 -3.6011885318951379e+01 8 4 0
11789 1754 58 4.0999999999999998e-01 -1.2543987165642001e+00 -2.2813775393482885e+01 -3.4872142406811037e+01 5 5 0
10379 1284 58 4.0999999999999998e-01 -9.1975067865847855e+00 -1.5946485152655328e+01 -3.6890973117981154e+01 0 5 1
7656 376 58 4.0999999999999998e-01 -5.2053392985617108e-01 -1.5457789424912328e+01 -2.8795889665967671e+01 -2 -12 1
11788 1754 57 -8.1999999999999995e-01 -6.2083537350173756e-01 -2.3580230035763407e+01 -3.4977687124598745e+01 5 5 0
7655 376 58 4.0999999999999998e-01 -1.0069026768994860e-01 -1.4077029857941147e+01 -2.8031140996280499e+01 -2 -12 1
7497 323 58 4.0999999999999998e-01 -9.9698125026427711e+00 -1.4136352027049384e+01 -3.0487297569645882e+01 3 2 1