LAMMPS data file via write_data, version 5 Oct 2015, timestep = 24000

14048 atoms
58 atom types
11360 bonds
54 bond types
9680 angles
55 angle types
5536 dihedrals
43 dihedral types
336 impropers
3 improper types

-2.5850098325735171e+01 2.5850098325735171e+01 xlo xhi
-2.8300540664590159e+01 2.8300540664590159e+01 ylo yhi
-3.8453030703251990e+01 3.8453030703251990e+01 zlo zhi

Masses

1 15.9994
2 15.9994
3 15.9994
4 15.9994
5 15.9994
6 14.0067
7 14.0067
8 14.0067
9 14.0067
10 14.0067
11 14.0067
12 12.011
13 12.011
14 13.019
15 14.027
16 15.035
17 16.043
18 14.027
19 13.019
20 1.008
21 1.008
22 999
23 32.06
24 63.546
25 63.546
26 55.847
27 65.37
28 24.305
29 40.08
30 30.9738
31 39.948
32 18.9984
33 35.453
34 79.904
35 15.035
36 15.9994
37 22.9898
38 35.453
39 12.011
40 35.453
41 1.008
42 32.06
43 15.035
44 15.9994
45 12.011
46 35.453
47 18.9984
48 12.011
49 14.027
50 15.9994
51 12.011
52 15.9994
53 14.0067
54 28.08
55 999
56 999
57 15.994
58 1.008

Pair Coeffs # lj/cut/coul/long/gpu

1 0.30699 2.7601
2 0.41401 2.6259
3 0.25371 2.8492
4 0.25371 2.8492
5 0.15604 3.1656
6 0.15355 3.1365
7 0.15355 3.1365
8 0.15355 3.1365
9 0.15355 3.1365
10 0.15355 3.1365
11 0.15355 3.1365
12 0.066577 3.5812
13 0.0016789 6.6395
14 0.022773 5.0192
15 0.09853 4.0704
16 0.20812 3.7479
17 0.30682 3.7028
18 0.11503 3.9547
19 0.14617 3.6818
20 0.028411 2.3734
21 0 0
22 0 0
23 0.039532 2.309
24 0 0
25 0 1
26 0 0
27 0 0
28 0 0
29 0 0
30 0.58722 3.3856
31 0 0
32 0 0
33 0 0
34 0 0
35 0 0
36 0 0
37 0 0
38 0 0
39 0 0
40 0 0
41 0 0
42 0 0
43 0 0
44 0 0
45 0 0
46 0 0
47 0 0
48 0 0
49 0 0
50 0 0
51 0 0
52 0 0
53 0 0
54 0 0
55 0 0
56 0 0
57 0.15543 3.1655
58 0 0

Bond Coeffs # harmonic

1 375.23 1
2 446.93 1
3 349.266 1.09
4 1109.27 1.12
5 600.228 1.23
6 500.406 1.25
7 499.72 1.32
8 374.994 1.33
9 448.133 1.33
10 498.865 1.33
11 450.606 1.34
12 502.104 1.34
13 450.896 1.36
14 500.667 1.38
15 399.894 1.39
16 498.714 1.39
17 400.048 1.4
18 399.782 1.43
19 450.121 1.43
20 300.214 1.435
21 449.832 1.47
22 299.969 1.48
23 399.958 1.48
24 450.215 1.48
25 450.097 1.5
26 299.837 1.52
27 400.025 1.53
28 299.844 1.61
29 299.72 1.63
30 205.971 1.78
31 449.805 1.78
32 449.818 1.83
33 300.038 1.87
34 59.9664 1.98
35 60.0368 2
36 500.295 2.04
37 63.0342 2.21
38 554.48 1
39 349.92 1.1
40 599.78 1.758
41 449.818 1.53
42 444.33 1.938
43 599.664 1.76
44 501.014 1.265
45 448.645 1.35
46 555.115 1.633
47 350.241 2.3384
48 600.147 2.9028
49 445.873 2.7939
50 443.805 2.9119
51 409.318 2.077
52 600.159 2.8741
53 527.1 1
54 629.318 0.94

Improper Coeffs # harmonic

1 20.0071 0
2 40.0141 35.2644
3 80.0282 0

Atoms # full

11309 1775 58 4.0999999999999998e-01 -2.1952957190424002e+01 -2.7028621980188490e+01 -3.5142632389893983e+01 3 -6 0
11307 1775 57 -8.1999999999999995e-01 -2.2313248937775636e+01 -2.6209911626523638e+01 -3.4695533044578362e+01 3 -6 0
11308 1775 58 4.0999999999999998e-01 -2.2775525041250184e+01 -2.6468784787009994e+01 -3.3847438922775176e+01 3 -6 0
11026 1681 58 4.0999999999999998e-01 -1.3603764287025671e+01 -2.4566932231301728e+01 -3.2902061238215140e+01 4 3 0
11025 1681 57 -8.1999999999999995e-01 -1.4090431524325195e+01 -2.3833294633536635e+01 -3.2427800074783917e+01 4 3 0
10306 1441 58 4.0999999999999998e-01 -2.4186268699601808e+01 -2.7351195082268831e+01 -3.1710003572934884e+01 0 4 0
10305 1441 57 -8.1999999999999995e-01 -2.3906998618346396e+01 -2.7535592313463457e+01 -3.2652329868211247e+01 0 4 0
7063 360 58 4.0999999999999998e-01 -1.6392765294020862e+01 -2.2617550709362014e+01 -3.8054664579100645e+01 2 3 1
10705 1574 58 4.0999999999999998e-01 -2.3629309193895327e+01 -2.3953108537618949e+01 -3.3514071593261626e+01 8 -3 0
10704 1574 57 -8.1999999999999995e-01 -2.2680735909814334e+01 -2.3806210339908997e+01 -3.3233666043588570e+01 8 -3 0
8298 772 57 -8.1999999999999995e-01 -2.3401824438859759e+01 -2.5680094405566791e+01 -3.7200884362753584e+01 7 9 1
11027 1681 58 4.0999999999999998e-01 -1.3688338217314850e+01 -2.3696849375566810e+01 -3.1522439247855132e+01 4 3 0
10706 1574 58 4.0999999999999998e-01 -2.2112314316083964e+01 -2.4555434275230564e+01 -3.3573603056170491e+01 8 -3 0
12037 2018 58 4.0999999999999998e-01 -1.8055523444283086e+01 -2.5127899187130311e+01 -3.2765289669558499e+01 0 -2 0
6435 151 57 -8.1999999999999995e-01 -1.7967323407707561e+01 -2.2367230176786784e+01 -3.5147163618010495e+01 1 3 1
6436 151 58 4.0999999999999998e-01 -1.8586102353526730e+01 -2.1647458391471531e+01 -3.4832459181009149e+01 1 3 1
11695 1904 58 4.0999999999999998e-01 -2.2985603229770376e+01 -2.3778381058110234e+01 -3.1156448905325362e+01 -3 2 0
12036 2018 57 -8.1999999999999995e-01 -1.7347133943689862e+01 -2.5449678796643063e+01 -3.2137094059236858e+01 0 -2 0
11694 1904 57 -8.1999999999999995e-01 -2.3823720982544906e+01 -2.4191812675629109e+01 -3.0800598134574642e+01 -3 2 0
11696 1904 58 4.0999999999999998e-01 -2.4614121126319564e+01 -2.3807533886902196e+01 -3.1277663581473643e+01 -3 2 0
8299 772 58 4.0999999999999998e-01 -2.2909400623457032e+01 -2.4953163578914157e+01 -3.7679511242285564e+01 7 9 1
13570 2529 58 4.0999999999999998e-01 -2.2932132932989202e+01 -2.4382328450766781e+01 -2.9245071649103256e+01 3 -2 0
6719 245 58 4.0999999999999998e-01 -2.0335145906877820e+01 -2.2606776736195290e+01 -3.0690520157580256e+01 -7 1 1
12038 2018 58 4.0999999999999998e-01 -1.6967973015023396e+01 -2.6311260924514940e+01 -3.2474600543179477e+01 0 -2 0
9326 1114 58 4.0999999999999998e-01 -1.8806434090165624e+01 -1.9533600058968609e+01 -3.1928294789062736e+01 -3 2 1
12833 2283 58 4.0999999999999998e-01 -2.4626872044383422e+01 -2.5710888941871367e+01 -3.0564674096420653e+01 -4 8 0
12302 2106 58 4.0999999999999998e-01 -1.7940221036550319e+01 -2.7167563920507607e+01 -3.6965376303763186e+01 6 6 0
6437 151 58 4.0999999999999998e-01 -1.8474192586318654e+01 -2.3223582355443696e+01 -3.5245881084172566e+01 1 3 1
12300 2106 57 -8.1999999999999995e-01 -1.8623183626908997e+01 -2.6444383848253686e+01 -3.7068198608695688e+01 6 6 0
13389 2469 57 -8.1999999999999995e-01 -1.5151735743066375e+01 -2.3412745157328839e+01 -3.4813610367937009e+01 3 7 0
7985 667 58 4.0999999999999998e-01 -1.4970937745660352e+01 -2.3705968320656339e+01 -3.7700516152960830e+01 -5 0 1
7983 667 57 -8.1999999999999995e-01 -1.4578534326105851e+01 -2.4475889082057538e+01 -3.7197292497979809e+01 -5 0 1
12824 2280 58 4.0999999999999998e-01 -1.9186516925303117e+01 -2.3129267071196157e+01 -3.2438272344705013e+01 5 1 0
12822 2280 57 -8.1999999999999995e-01 -1.8805000332064072e+01 -2.2574989981576412e+01 -3.1698539401384551e+01 5 1 0
12823 2280 58 4.0999999999999998e-01 -1.7826582617985167e+01 -2.2438800600077336e+01 -3.1853944928507065e+01 5 1 0
8300 772 58 4.0999999999999998e-01 -2.3144812384214191e+01 -2.5677084875269838e+01 -3.6234496072690931e+01 7 9 1
13390 2469 58 4.0999999999999998e-01 -1.6044352010921429e+01 -2.2974490681839519e+01 -3.4919294256528595e+01 3 7 0
13391 2469 58 4.0999999999999998e-01 -1.4897773801874237e+01 -2.3423930156088499e+01 -3.3846475485833857e+01 3 7 0
8625 881 57 -8.1999999999999995e-01 -1.6960850716705480e+01 -2.8154255064268657e+01 -2.8470183659517893e+01 -6 0 1
12287 2101 58 4.0999999999999998e-01 -1.5952984019183562e+01 -2.5062604797398635e+01 -2.9378054111278814e+01 -4 5 0
12285 2101 57 -8.1999999999999995e-01 -1.5437268805900453e+01 -2.5640406477346016e+01 -3.0010644643584172e+01 -4 5 0
12831 2283 57 -8.1999999999999995e-01 -2.5084350781203032e+01 -2.6568269287403549e+01 -3.0328855877715057e+01 -4 8 0
12286 2101 58 4.0999999999999998e-01 -1.5713661914997266e+01 -2.5436567328591597e+01 -3.0949808809873481e+01 -4 5 0
6717 245 57 -8.1999999999999995e-01 -2.1212945385309929e+01 -2.2426167386267178e+01 -3.0246851119554073e+01 -7 1 1
9324 1114 57 -8.1999999999999995e-01 -1.8544979947988743e+01 -1.8928452919582607e+01 -3.2680239775683987e+01 -3 2 1
10685 1567 58 4.0999999999999998e-01 -2.5515864985978531e+01 -2.5173115803982167e+01 -3.7332511797641551e+01 -7 -2 0
8053 690 58 4.0999999999999998e-01 -6.9836771028918569e+00 -7.8099469105505328e+00 -3.8113938577343049e+01 9 7 1
9856 1291 58 4.0999999999999998e-01 -8.7851103892843696e-01 -2.6333790818604950e+01 -3.0867321813251145e+01 3 6 1
7089 369 57 -8.1999999999999995e-01 -1.5915069696125018e+01 -2.2036308524737002e+01 -3.1471897338931328e+01 11 11 1
6718 245 58 4.0999999999999998e-01 -2.1462518074270115e+01 -2.3204888781373477e+01 -2.9671267822245984e+01 -7 1 1
8946 988 57 -8.1999999999999995e-01 -1.7536849089301015e+01 -1.9395675636281901e+01 -2.8268703365603539e+01 0 4 1
8947 988 58 4.0999999999999998e-01 -1.7053761373294869e+01 -2.0207753598548329e+01 -2.8596044617365504e+01 0 4 1
13658 2558 58 4.0999999999999998e-01 -1.4290238911697676e+01 -2.1980425802785188e+01 -3.7131016914691742e+01 -2 1 0
13656 2558 57 -8.1999999999999995e-01 -1.3348638828207395e+01 -2.1673016608634125e+01 -3.7268454566135055e+01 -2 1 0
7090 369 58 4.0999999999999998e-01 -1.5446530849804038e+01 -2.2874557668250283e+01 -3.1750837680399471e+01 11 11 1
7091 369 58 4.0999999999999998e-01 -1.5641142382018897e+01 -2.1794762666375075e+01 -3.0540987601389187e+01 11 11 1
11563 1860 58 4.0999999999999998e-01 -1.9892739698657849e+01 -2.7550504914046318e+01 -3.6084710432507414e+01 -4 -5 0
13657 2558 58 4.0999999999999998e-01 -1.3348507576768725e+01 -2.0823201987616610e+01 -3.7795528698488766e+01 -2 1 0
8345 787 58 4.0999999999999998e-01 -2.2115474249891669e+01 -2.2262855850440513e+01 -3.3923960503374772e+01 5 0 1
6832 283 58 4.0999999999999998e-01 -6.1350201904453492e+00 -2.1320439351564055e+01 -3.7307664507906622e+01 -11 -3 1
7113 377 57 -8.1999999999999995e-01 -2.5534449818064267e+01 -2.2761162511218718e+01 -3.5634240223251673e+01 -7 -7 1
11104 1707 58 4.0999999999999998e-01 -2.2440289229004247e+01 -5.0119483026416987e+00 -3.8301534389405710e+01 1 6 0
13582 2533 58 4.0999999999999998e-01 -1.5413096111165386e+01 -2.0192666705451746e+01 -3.2314790579078164e+01 -5 -4 0
6690 236 57 -8.1999999999999995e-01 -3.7034312049943452e-02 -2.7793121172063362e+01 -3.6474104054113326e+01 -3 8 1
8948 988 58 4.0999999999999998e-01 -1.7120501846571884e+01 -1.9080758961317851e+01 -2.7415790798822155e+01 0 4 1
7642 553 58 4.0999999999999998e-01 -2.0963625636207869e+01 -2.0721918961427875e+01 -3.0723075080594317e+01 -8 2 1
7984 667 58 4.0999999999999998e-01 -1.4793792673715849e+01 -2.4383717087375214e+01 -3.6225110287627253e+01 -5 0 1
3954 74 15 4.0000000000000002e-01 -9.3054223272543246e-01 -1.8783905404559803e+01 -2.2744684741798530e+01 0 0 0
7115 377 58 4.0999999999999998e-01 -2.4782157138185362e+01 -2.2358892397138579e+01 -3.6155993221188325e+01 -7 -7 1
6411 143 57 -8.1999999999999995e-01 -2.5482660252033938e+01 -2.3070227898783042e+01 -3.2865795503050919e+01 -2 -6 1
11202 1740 57 -8.1999999999999995e-01 -2.3288364532841857e+01 -2.1120401001960733e+01 -3.6652532714123694e+01 8 7 0
11203 1740 58 4.0999999999999998e-01 -2.2911615276206987e+01 -2.1243910865611142e+01 -3.5734502469341045e+01 8 7 0
8096 704 58 4.0999999999999998e-01 -2.4871563251750800e+01 -9.2419649439931035e+00 -3.7893170067488875e+01 5 -3 1
13615 2544 58 4.0999999999999998e-01 -1.3619632518042591e+01 -2.5895153096403753e+01 -3.6831987056171130e+01 -7 -6 0
8311 776 58 4.0999999999999998e-01 -1.2362916427488894e+01 -2.1655287309940640e+01 -3.5585043308867640e+01 2 -2 1
9022 1013 58 4.0999999999999998e-01 -2.4260621784354061e+01 -2.7732325250081868e+01 -3.6813176759022156e+01 -3 -4 1
9325 1114 58 4.0999999999999998e-01 -1.9076852419146185e+01 -1.8083188400260035e+01 -3.2628850657724520e+01 -3 2 1
8343 787 57 -8.1999999999999995e-01 -2.2255526075062967e+01 -2.1281854890514168e+01 -3.4058206296371402e+01 5 0 1
8344 787 58 4.0999999999999998e-01 -2.2971564104151888e+01 -2.0959103172959367e+01 -3.3439248104457363e+01 5 0 1
12034 2017 58 4.0999999999999998e-01 -1.9319514505181328e+01 -1.9634921573416236e+01 -3.4201298649315788e+01 4 3 0
7643 553 58 4.0999999999999998e-01 -2.1679333601494786e+01 -1.9958448019521128e+01 -3.1977044260896232e+01 -8 2 1
7641 553 57 -8.1999999999999995e-01 -2.1058285119933082e+01 -1.9848644465028002e+01 -3.1201013688815518e+01 -8 2 1
12015 2011 57 -8.1999999999999995e-01 -2.5818517370045313e+01 -1.8674512020119220e+01 -3.1348813160229543e+01 -1 5 0
9613 1210 58 4.0999999999999998e-01 -1.3154198680538290e+01 -1.8870724539727835e+01 -2.9396344190185157e+01 11 1 1
13581 2533 57 -8.1999999999999995e-01 -1.4936084746258439e+01 -1.9318731298266812e+01 -3.2408048771625189e+01 -5 -4 0
9614 1210 58 4.0999999999999998e-01 -1.3191231531181158e+01 -1.9073356012887363e+01 -3.1016560398034400e+01 11 1 1
11204 1740 58 4.0999999999999998e-01 -2.3340399181994623e+01 -2.0144285100987410e+01 -3.6863458125048403e+01 8 7 0
6638 218 58 4.0999999999999998e-01 -2.0899323822409851e+01 -2.4012129137849627e+01 -3.6048971642379804e+01 4 0 1
13569 2529 57 -8.1999999999999995e-01 -2.2036965916708258e+01 -2.4467916985256398e+01 -2.8807640964353499e+01 3 -2 0
6636 218 57 -8.1999999999999995e-01 -2.0074820580601187e+01 -2.4221620967275143e+01 -3.5523329809203119e+01 4 0 1
6637 218 58 4.0999999999999998e-01 -1.9454022142795495e+01 -2.4772169970265644e+01 -3.6081447638198952e+01 4 0 1
8312 776 58 4.0999999999999998e-01 -1.2668094045929196e+01 -2.2636216016052483e+01 -3.4315315524084930e+01 2 -2 1
7336 451 58 4.0999999999999998e-01 -1.9620613728262292e+01 -3.3617775058917729e+00 -3.6046322578488315e+01 -8 -4 1
13616 2544 58 4.0999999999999998e-01 -1.3457495553672103e+01 -2.7415210601105333e+01 -3.6256884822376840e+01 -7 -6 0
8310 776 57 -8.1999999999999995e-01 -1.2103223760767403e+01 -2.1880157698831546e+01 -3.4645912672930550e+01 2 -2 1
11289 1769 57 -8.1999999999999995e-01 -3.2872895121599655e-01 -1.6534599394056791e+01 -3.2988153688427268e+01 -2 -10 0
6597 205 57 -8.1999999999999995e-01 -1.2800641872880346e+01 -2.6777311741560446e+01 -2.9796825549104341e+01 -7 4 1
9612 1210 57 -8.1999999999999995e-01 -1.2600713571550695e+01 -1.9048847566823490e+01 -3.0209920699789198e+01 11 1 1
6599 205 58 4.0999999999999998e-01 -1.3572031482517533e+01 -2.6200045090868144e+01 -3.0064630966953516e+01 -7 4 1
7064 360 58 4.0999999999999998e-01 -1.6656110555177840e+01 -2.2204098752169500e+01 -3.6496702850784807e+01 2 3 1
12970 2329 58 4.0999999999999998e-01 -2.0128390513300591e+01 -1.8375354415253547e+01 -2.9912183523661486e+01 -2 0 0
10047 1355 57 -8.1999999999999995e-01 -2.3926546758541765e+01 -2.0583191148999418e+01 -3.2048240971703940e+01 3 4 1
10048 1355 58 4.0999999999999998e-01 -2.4543704605548413e+01 -1.9879425380091021e+01 -3.1696350568218417e+01 3 4 1
13583 2533 58 4.0999999999999998e-01 -1.5494294654126644e+01 -1.8689844572371513e+01 -3.2949245452277701e+01 -5 -4 0
10049 1355 58 4.0999999999999998e-01 -2.4344114698217926e+01 -2.1483838334467261e+01 -3.1927943470617251e+01 3 4 1
7886 634 58 4.0999999999999998e-01 -1.2255165205408012e+01 -1.9091872027785371e+01 -3.4146142106637576e+01 -9 6 1
11562 1860 57 -8.1999999999999995e-01 -2.0542240344473942e+01 -2.8225295241813591e+01 -3.5734276676785655e+01 -4 -5 0
12301 2106 58 4.0999999999999998e-01 -1.8684541521860154e+01 -2.6177494737161705e+01 -3.8029955566289011e+01 6 6 0
13633 2550 58 4.0999999999999998e-01 -2.2694154251208058e+01 -2.2462741280635953e+01 -3.7527401722507236e+01 3 -1 0
5138 96 30 1.7000000000000000e+00 -2.3418439800035149e+01 -2.4919886514174741e-01 -2.7868546788061870e+01 0 0 0
4553 85 15 0.0000000000000000e+00 -5.3709772085249430e+00 -2.8126786442223583e+01 -2.1167441037501078e+01 0 0 0
7062 360 57 -8.1999999999999995e-01 -1.6096638051756319e+01 -2.2024594748055115e+01 -3.7305868442267396e+01 2 3 1
6629 215 58 4.0999999999999998e-01 -1.9495760267927079e+01 -2.6617890041334661e+01 -2.8397684043195746e+01 0 0 1
6627 215 57 -8.1999999999999995e-01 -2.0407410637598371e+01 -2.7026321957661779e+01 -2.8352108620259237e+01 0 0 1
6628 215 58 4.0999999999999998e-01 -2.1069308085164753e+01 -2.6334109742927755e+01 -2.8064477457365566e+01 0 0 1
11122 1713 58 4.0999999999999998e-01 -1.4988774866999652e+01 -1.8737284513421919e+00 -3.3035704771142100e+01 -13 -2 0
7368 462 57 -8.1999999999999995e-01 -2.4489228565201302e+01 -1.8675423425576696e+00 -3.8302163862820684e+01 3 -1 1
9855 1291 57 -8.1999999999999995e-01 -3.6130487863340477e-01 -2.7181747383150672e+01 -3.0983369124385213e+01 3 6 1
10682 1566 58 4.0999999999999998e-01 -2.5611633236096175e+01 -1.5307059930146547e+01 -3.3661971771577157e+01 -2 6 0
11198 1738 58 4.0999999999999998e-01 -1.2087085657929272e+01 -1.0070428014870426e+01 -3.8123891607565206e+01 -3 -4 0
10949 1655 58 4.0999999999999998e-01 -2.0271657513624060e+01 -1.8192736419671867e+01 -3.7458517342407717e+01 -3 -2 0
10918 1645 58 4.0999999999999998e-01 -1.3352860891791769e+01 -1.8657376593324670e-01 -3.1666944212825094e+01 -5 -8 0
9174 1064 57 -8.1999999999999995e-01 -7.2605953600591526e+00 -2.3816970985822653e+01 -3.6214388105624330e+01 8 3 1
7766 594 58 4.0999999999999998e-01 -2.3658279861918789e+01 -1.2204382980617083e+01 -3.7810852552458037e+01 -4 -7 1
12881 2299 58 4.0999999999999998e-01 -2.5532447160595204e+01 -5.7468802794718528e+00 -3.4153551252672706e+01 -5 -7 0
7585 534 58 4.0999999999999998e-01 -9.2333810249808472e+00 -2.5875612333144467e+01 -3.4040408924517230e+01 4 4 1
7314 444 57 -8.1999999999999995e-01 -1.0226180328959524e+01 -2.5881592544893760e+01 -3.6324442323052693e+01 -13 0 1
6746 254 58 4.0999999999999998e-01 -6.0071564731095783e+00 -2.7252069519667600e+01 -3.1680828023662389e+01 5 6 1
13819 2612 58 4.0999999999999998e-01 -1.2582398826825905e+01 -2.7197959435541581e+01 -3.3320378603149933e+01 15 -2 0
13614 2544 57 -8.1999999999999995e-01 -1.3035810373920167e+01 -2.6509555131242340e+01 -3.6301275690672973e+01 -7 -6 0
11720 1912 58 4.0999999999999998e-01 -3.3813599388494673e+00 -2.6348027783879559e+01 -3.3692438989008643e+01 8 2 0
6745 254 58 4.0999999999999998e-01 -6.1012564569316723e+00 -2.5646707366548174e+01 -3.1966430712020518e+01 5 6 1
6401 139 58 4.0999999999999998e-01 -1.3654589012017158e+01 -2.7990191825795357e+01 -2.8847634006989583e+01 1 0 1
11326 1781 58 4.0999999999999998e-01 -1.2050926729906667e+01 -2.2722272660226690e+01 -3.0663659882127192e+01 -1 -2 0
7826 614 58 4.0999999999999998e-01 -2.8603895618335109e+00 -2.2090945525991490e+01 -3.5557290313188517e+01 6 -1 1
7825 614 58 4.0999999999999998e-01 -2.4004346620467878e+00 -2.2391555895597367e+01 -3.4019234605984764e+01 6 -1 1
10479 1499 57 -8.1999999999999995e-01 -9.5366730693187911e+00 -2.2426692979319899e+01 -3.3785987538989957e+01 3 -5 0
9841 1286 58 4.0999999999999998e-01 -9.6292723364749158e+00 -2.4745186823163060e+01 -2.9828270003926789e+01 -4 7 1
9840 1286 57 -8.1999999999999995e-01 -1.0446199156071387e+01 -2.5318905824227269e+01 -2.9887235868053814e+01 -4 7 1
12397 2138 58 4.0999999999999998e-01 -7.0061075983116545e+00 -2.0525891977266436e+01 -3.0689164509718264e+01 6 -4 0
9842 1286 58 4.0999999999999998e-01 -1.1164617214506897e+01 -2.4827198324848133e+01 -3.0379264004866254e+01 -4 7 1
12398 2138 58 4.0999999999999998e-01 -8.0923519876289873e+00 -2.0520085409303363e+01 -2.9469490282140040e+01 6 -4 0
12396 2138 57 -8.1999999999999995e-01 -7.7944070637216960e+00 -2.0998689170725267e+01 -3.0295411495977163e+01 6 -4 0
11600 1872 58 4.0999999999999998e-01 -1.0260611727821159e+01 -2.2639099425320396e+01 -3.6914792870977905e+01 -8 5 0
11598 1872 57 -8.1999999999999995e-01 -9.4923130475594597e+00 -2.2111769131961900e+01 -3.6551975939469969e+01 -8 5 0
11599 1872 58 4.0999999999999998e-01 -9.3080209173823114e+00 -2.2394857507012073e+01 -3.5610769214032793e+01 -8 5 0
12054 2024 57 -8.1999999999999995e-01 -1.8352876144514703e+00 -2.4783542834004898e+01 -3.1423964964365403e+01 2 7 0
7434 484 57 -8.1999999999999995e-01 -3.8720680912086998e+00 -2.1790364349180845e+01 -2.9646859118383830e+01 -8 0 1
12055 2024 58 4.0999999999999998e-01 -2.4533359220649018e+00 -2.4427638726105044e+01 -3.0723013410851237e+01 2 7 0
7436 484 58 4.0999999999999998e-01 -3.1698573935351924e+00 -2.2309211066609752e+01 -3.0134394469118526e+01 -8 0 1
7903 640 58 4.0999999999999998e-01 -5.0152129223200852e+00 -1.8688829975557205e+01 -3.4434264590939506e+01 0 -1 1
7902 640 57 -8.1999999999999995e-01 -4.8350129587604656e+00 -1.9588566056676665e+01 -3.4036773437794849e+01 0 -1 1
7904 640 58 4.0999999999999998e-01 -5.6622683730944310e+00 -2.0148024090321851e+01 -3.4088313232912654e+01 0 -1 1
9920 1312 58 4.0999999999999998e-01 -4.5846910353224679e+00 -2.5098839797347914e+01 -3.5082938704448452e+01 -3 -4 1
9918 1312 57 -8.1999999999999995e-01 -4.2690729171557713e+00 -2.4650169637968173e+01 -3.4246841570637386e+01 -3 -4 1
9919 1312 58 4.0999999999999998e-01 -3.6559318599349737e+00 -2.3896477485271188e+01 -3.4483494056249185e+01 -3 -4 1
12626 2214 58 4.0999999999999998e-01 -2.5795442097055137e+00 -1.9653055853505826e+01 -3.7506478288487365e+01 -3 0 0
9821 1279 58 4.0999999999999998e-01 -6.8567079234928343e+00 -2.1984361018845718e+01 -3.4640950837142618e+01 -1 5 1
9819 1279 57 -8.1999999999999995e-01 -7.0486166642738404e+00 -2.1005983433025285e+01 -3.4718076602490100e+01 -1 5 1
6835 284 58 4.0999999999999998e-01 -2.4655224588546076e-01 -2.4503907943602343e+01 -2.7283909924896186e+01 3 2 1
9820 1279 58 4.0999999999999998e-01 -7.8695291609526166e+00 -2.0784333932031910e+01 -3.4191800783668675e+01 -1 5 1
13165 2394 58 4.0999999999999998e-01 -4.6816488079002703e+00 -2.0653933506987656e+01 -3.0760359055113533e+01 -4 0 0
12652 2223 58 4.0999999999999998e-01 -9.8747371786154101e+00 -2.1133210994698292e+01 -3.0593662752375995e+01 2 5 0
12059 2025 58 4.0999999999999998e-01 -1.2560056877897303e+01 -2.5664089159610633e+01 -3.4745318802531273e+01 -8 0 0
12057 2025 57 -8.1999999999999995e-01 -1.2375008897162260e+01 -2.5467378690248847e+01 -3.3782492631483088e+01 -8 0 0
12058 2025 58 4.0999999999999998e-01 -1.1400539889802515e+01 -2.5278078955795475e+01 -3.3661762571530389e+01 -8 0 0
12651 2223 57 -8.1999999999999995e-01 -1.0867215203875839e+01 -2.1254282586366379e+01 -3.0611805682174094e+01 2 5 0
13164 2394 57 -8.1999999999999995e-01 -5.3642953996187295e+00 -2.0102901789018620e+01 -3.1240308999080955e+01 -4 0 0
13166 2394 58 4.0999999999999998e-01 -5.0672780629549727e+00 -1.9950156318679348e+01 -3.2182870579322113e+01 -4 0 0
7476 498 57 -8.1999999999999995e-01 -6.6575062065942454e+00 -2.4539783818652364e+01 -3.3038099607753715e+01 -3 3 1
7478 498 58 4.0999999999999998e-01 -5.8037285957295452e+00 -2.4542256695550879e+01 -3.3558724671426276e+01 -3 3 1
7477 498 58 4.0999999999999998e-01 -7.4233835551799885e+00 -2.4354375498645474e+01 -3.3653765306006576e+01 -3 3 1
13451 2489 58 4.0999999999999998e-01 -1.8310847338577425e+01 -2.2430179118509379e+00 -3.8381636295019902e+01 4 5 0
11272 1763 58 4.0999999999999998e-01 -8.0321484164821406e+00 -2.2660937064738732e+01 -3.0250320707858165e+01 0 0 0
11271 1763 57 -8.1999999999999995e-01 -8.1586797330249219e+00 -2.3630837647205176e+01 -3.0458366228146225e+01 0 0 0
11273 1763 58 4.0999999999999998e-01 -7.3077269067100303e+00 -2.4007491505003411e+01 -3.0824436925421303e+01 0 0 0
10481 1499 58 4.0999999999999998e-01 -9.5743711630165755e+00 -2.3323166565541690e+01 -3.3344503529129270e+01 3 -5 0
8191 736 58 4.0999999999999998e-01 -4.7614806035572066e+00 -2.6736102759649381e+01 -2.9784453214243335e+01 -7 -3 1
10480 1499 58 4.0999999999999998e-01 -1.0464338514181875e+01 -2.2070447845185264e+01 -3.3897909920991509e+01 3 -5 0
10893 1637 57 -8.1999999999999995e-01 -8.8250722969316442e-01 -1.1561873980352090e+01 -3.7713224100996335e+01 1 4 0
7824 614 57 -8.1999999999999995e-01 -2.5922786192877645e+00 -2.2804187569631932e+01 -3.4909687325198270e+01 6 -1 1
11492 1836 58 4.0999999999999998e-01 -5.2388226865491454e+00 -2.5786166336165586e+01 -3.7422828588675223e+01 3 -1 0
7315 444 58 4.0999999999999998e-01 -9.7066961703338883e+00 -2.5706719227835620e+01 -3.7160824050667586e+01 -13 0 1
11718 1912 57 -8.1999999999999995e-01 -2.7895669560148306e+00 -2.6999883580218274e+01 -3.3218246567232733e+01 8 2 0
11491 1836 58 4.0999999999999998e-01 -6.3523090296115683e+00 -2.5164202843923270e+01 -3.6402588786724742e+01 3 -1 0
11490 1836 57 -8.1999999999999995e-01 -5.6176902648598634e+00 -2.5835837014527016e+01 -3.6498726242049372e+01 3 -1 0
6933 317 57 -8.1999999999999995e-01 -1.5158204919305973e-01 -2.6418746123162837e+01 -3.4025731554349875e+01 -1 -1 1
11719 1912 58 4.0999999999999998e-01 -2.5114704048466514e+00 -2.6618249290595088e+01 -3.2336773829503187e+01 8 2 0
12653 2223 58 4.0999999999999998e-01 -1.1313372072282959e+01 -2.0387314847956130e+01 -3.0389747415015783e+01 2 5 0
6744 254 57 -8.1999999999999995e-01 -5.7512273118445520e+00 -2.6346186896815940e+01 -3.1343376930091857e+01 5 6 1
7933 650 58 4.0999999999999998e-01 -4.2562748265751686e+00 -2.0541399181614686e+01 -3.6824400310258646e+01 0 -1 1
7584 534 57 -8.1999999999999995e-01 -9.4876848084100409e+00 -2.5500013102307722e+01 -3.3149213141438437e+01 4 4 1
11325 1781 57 -8.1999999999999995e-01 -1.2522064668573009e+01 -2.3522512515919829e+01 -3.0292658700841983e+01 -1 -2 0
6598 205 58 4.0999999999999998e-01 -1.1950349536374603e+01 -2.6257452716718962e+01 -2.9878981078824843e+01 -7 4 1
7586 534 58 4.0999999999999998e-01 -9.0720175372134335e+00 -2.6049517712240071e+01 -3.2424472499062759e+01 4 4 1
6603 207 57 -8.1999999999999995e-01 -7.7202044716372953e-01 -2.5355972683110707e+01 -3.8000009002294227e+01 2 4 1
6604 207 58 4.0999999999999998e-01 -1.1379029912939167e+00 -2.4981321607949933e+01 -3.7148102773157639e+01 2 4 1
7528 515 58 4.0999999999999998e-01 -1.3900874760131430e+00 -2.0917478230413334e+01 -3.3169173243895571e+01 2 -1 1
7885 634 58 4.0999999999999998e-01 -1.2301049740363931e+01 -2.0425809274651293e+01 -3.3204817833176293e+01 -9 6 1
7884 634 57 -8.1999999999999995e-01 -1.2050195184942194e+01 -1.9458373777532966e+01 -3.3238597153878494e+01 -9 6 1
3947 74 15 2.9999999999999999e-01 -2.6798347891799490e+00 -1.8919783557266815e+01 -2.8645121968005341e+01 0 0 0
10947 1655 57 -8.1999999999999995e-01 -1.9986148805154041e+01 -1.9151065653368708e+01 -3.7449030545013692e+01 -3 -2 0
7316 444 58 4.0999999999999998e-01 -1.1171187970331612e+01 -2.5579217807222204e+01 -3.6449061951460934e+01 -13 0 1
13520 2512 58 4.0999999999999998e-01 -2.7196193830022608e+00 -7.5331401086888370e+00 -3.6896349628466631e+01 1 -1 0
8190 736 57 -8.1999999999999995e-01 -4.4752177636869739e+00 -2.7258830806414210e+01 -2.8981465911036882e+01 -7 -3 1
6934 317 58 4.0999999999999998e-01 -9.9511919255634140e-01 -2.6681658248848816e+01 -3.3557419819446153e+01 -1 -1 1
5141 96 3 -6.9999999999999996e-01 -2.3680273105655679e+01 -3.4060165469109105e-01 -2.6321786598541099e+01 0 0 0
7932 650 57 -8.1999999999999995e-01 -3.4078225553688313e+00 -2.0538066633261359e+01 -3.6295147292405758e+01 0 -1 1
13276 2431 58 4.0999999999999998e-01 -9.7655717785012683e+00 -5.2758051376679660e+00 -2.7823164108598974e+01 2 -1 0
9260 1092 58 4.0999999999999998e-01 -9.2886044856546164e+00 -2.0184876397878760e+01 -3.6255931502771382e+01 0 4 1
8702 906 58 4.0999999999999998e-01 -2.4952859727106901e+01 -2.8293331274498161e+01 -2.9921674967894226e+01 5 -1 1
8021 679 58 4.0999999999999998e-01 -1.8082120058767128e+01 -1.2421244059285204e+01 -3.7987702569752010e+01 3 -5 1
11989 2002 58 4.0999999999999998e-01 -9.6711002511776236e+00 -1.9559593804803498e+01 -3.3094071633671092e+01 1 -3 0
12870 2296 57 -8.1999999999999995e-01 -5.0926060238341364e-01 -1.9892360190238485e+01 -3.4240669431243170e+01 0 2 0
12847 2288 58 4.0999999999999998e-01 -6.7423192187740142e+00 -1.9489139697616324e+01 -3.6263959295235786e+01 -7 9 0
12846 2288 57 -8.1999999999999995e-01 -6.0730316461293832e+00 -1.9313758690991705e+01 -3.6985956602096955e+01 -7 9 0
13747 2588 58 4.0999999999999998e-01 -5.9044431926622565e-01 -2.3039479052745357e+01 -3.4353653522263222e+01 -5 -5 0
13632 2550 57 -8.1999999999999995e-01 -2.2259798833837309e+01 -2.3285447227784740e+01 -3.7894125668807021e+01 3 -1 0
10894 1637 58 4.0999999999999998e-01 -4.2222120339063807e-01 -1.2395701403130584e+01 -3.7408484859296109e+01 1 4 0
12880 2299 58 4.0999999999999998e-01 -2.5163040336627027e+01 -4.8573622810812473e+00 -3.5472587599698741e+01 -5 -7 0
9175 1064 58 4.0999999999999998e-01 -6.6275641451816476e+00 -2.3237685345424186e+01 -3.6727897328265563e+01 8 3 1
8118 712 57 -8.1999999999999995e-01 -8.6055346023599490e+00 -1.9134432950621225e+01 -2.8440012470679555e+01 1 1 1
13881 2633 57 -8.1999999999999995e-01 -1.2324917324430290e+01 -4.9851805643332767e+00 -3.7762909487310942e+01 2 9 0
8120 712 58 4.0999999999999998e-01 -8.8786541604137206e+00 -1.8241260867373356e+01 -2.8797288168687608e+01 1 1 1
9424 1147 58 4.0999999999999998e-01 -2.0424832164390679e+01 -2.8118563586617938e+01 -2.9576428660719642e+01 -6 4 1
9598 1205 58 4.0999999999999998e-01 -2.4174963768250073e+01 -1.7935493470215000e+01 -3.6438784398573084e+01 -10 1 1
13182 2400 57 -8.1999999999999995e-01 -1.7163797390673988e+01 -1.9582272917762499e+01 -3.6853122520009073e+01 -5 -7 0
12439 2152 58 4.0999999999999998e-01 -3.0515673935453798e+00 -1.3456262069815317e+00 -3.7910972335884821e+01 3 1 0
7775 597 58 4.0999999999999998e-01 -2.5648010434242746e+01 -2.6673915726347790e+01 -3.3652653068657365e+01 15 0 1
9198 1072 57 -8.1999999999999995e-01 -1.2800075583903748e+01 -1.6612973709489971e+01 -3.7781223384654567e+01 5 5 1
9200 1072 58 4.0999999999999998e-01 -1.2636936414373356e+01 -1.5780913427274799e+01 -3.8311368325271829e+01 5 5 1
13184 2400 58 4.0999999999999998e-01 -1.6671854498833703e+01 -2.0448939359565067e+01 -3.6936083196358531e+01 -5 -7 0
6400 139 58 4.0999999999999998e-01 -1.5111231321137145e+01 -2.8132659698968176e+01 -2.8122724969281112e+01 1 0 1
12971 2329 58 4.0999999999999998e-01 -1.8659690669461870e+01 -1.8473779932292921e+01 -2.9204488604847477e+01 -2 0 0
9706 1241 58 4.0999999999999998e-01 -2.3387087098758087e+01 -1.2009464736134856e+01 -3.5892145351257035e+01 1 2 1
12969 2329 57 -8.1999999999999995e-01 -1.9450642002103805e+01 -1.7883498806066910e+01 -2.9365624565005966e+01 -2 0 0
12035 2017 58 4.0999999999999998e-01 -2.0598529613274966e+01 -2.0622469513162489e+01 -3.4438958196279842e+01 4 3 0