ITEM: TIMESTEP
0
ITEM: NUMBER OF ATOMS
21
ITEM: BOX BOUNDS pp pp pp
-26.0698 26.0698
-28.1585 28.1585
-38.2142 38.2142
ITEM: ATOMS id mass x y z vx vy vz fx fy fz 
13537 1.008 -12.1125 -27.8827 10.0332 0.00193001 0.0191253 -0.00619001 0.894017 1.35157 1.92916 
13536 15.994 -11.1141 -27.8275 10.044 0.0030359 -0.00229137 0.00157724 -4.25598 0.961718 -3.68674 
12690 15.994 -18.5811 21.3041 -9.95303 0.00220648 -0.00457265 0.00097697 1.7071 0.946601 -2.28131 
12692 1.008 -17.6628 21.0908 -10.2866 -0.00807876 -0.00720627 -0.0256762 -1.7718 0.198709 0.542709 
12691 1.008 -18.9468 22.0855 -10.4586 -0.0110519 -0.00483134 0.0101745 0.151344 -0.53849 0.142454 
11365 1.008 -21.1863 15.8104 -0.603434 0.00168953 -0.0113741 0.00475124 -0.495266 0.260262 0.296289 
11364 15.994 -21.8995 16.1853 -0.0111382 0.00465967 0.00261472 -0.000517576 -0.6249 -0.517579 1.33543 
11366 1.008 -22.0249 15.5869 0.780164 -0.00619161 0.0101517 0.00346118 0.0217123 0.185225 -0.321881 
13538 1.008 -10.7431 27.978 9.26889 -0.00353376 0.0238673 -0.0188361 1.19322 1.93822 2.78698 
13586 1.008 -20.7409 14.6835 29.7531 0.000955968 -0.00694901 0.00806024 1.10137 4.12719 0.198216 
13584 15.994 -19.8234 14.4326 30.0617 0.00585034 0.000743222 -0.000191865 -3.18255 -2.95972 -9.94852 
13585 1.008 -19.2401 14.2596 29.2681 -0.00896732 -0.0271336 -0.00501591 -0.47628 0.103594 2.20552 
12728 1.008 25.6538 -6.09887 -19.9137 0.0071826 0.00068482 -0.0101913 1.16005 1.35906 -1.62216 
12726 15.994 25.128 -5.25995 -20.0542 0.00449341 0.000822513 0.000751815 -5.0713 5.54978 1.22157 
12727 1.008 24.6087 -5.04891 -19.2261 -0.00781357 -0.019812 -0.00173776 -3.3296 -4.29709 -2.33052 
10498 1.008 3.12093 -14.8665 19.5634 -0.0103985 -0.00253447 0.00212348 1.64731 1.72098 3.08672 
10497 15.994 3.33525 -15.7073 20.0606 0.00356617 -6.23052e-05 0.000283641 1.75551 0.599418 -1.45098 
10499 1.008 3.87153 -16.3144 19.4743 -0.000178982 0.00330882 -0.00662403 -2.73739 0.154928 -2.51427 
10346 1.008 16.5701 8.56589 -29.8319 -0.0113466 -0.00103864 0.000788257 0.0828817 -0.474189 -0.350786 
10344 15.994 16.6325 7.59037 -30.0428 -0.00407945 -0.000375343 -9.81132e-05 -6.04612 -8.06374 4.55437 
10345 1.008 17.3546 7.17482 -29.4897 -0.00212628 0.00416053 0.000768512 -1.59001 -0.748988 1.57335 
ITEM: TIMESTEP
1000
ITEM: NUMBER OF ATOMS
21
ITEM: BOX BOUNDS pp pp pp
-25.9122 25.9122
-28.2623 28.2623
-38.2839 38.2839
ITEM: ATOMS id mass x y z vx vy vz fx fy fz 
13537 1.008 -9.60761 -27.8557 9.4213 0.0140013 0.00502486 0.0148102 -0.485734 -0.377249 0.540438 
13536 15.994 -10.4072 -27.9346 10.0166 0.00221926 0.00370096 -0.00120206 2.40728 1.98487 -2.29643 
13538 1.008 -10.6922 -27.0238 10.3153 0.00314836 0.00219496 0.00426293 -0.029893 -0.144364 0.236251 
12690 15.994 -18.0529 22.4733 -9.95621 -0.000426899 -0.0055332 -0.000389334 0.230691 0.941043 -4.07105 
12692 1.008 -17.8595 22.4859 -10.9373 -0.0343018 0.00603724 -0.00692111 -0.175927 0.119804 2.95953 
12691 1.008 -18.7254 21.7603 -9.75761 -0.000702643 -0.00150493 0.0130987 0.558867 0.40917 0.435904 
11364 15.994 -20.3646 17.3545 -0.0479423 0.00600019 0.000532308 0.000385858 0.668644 1.17557 1.03002 
11366 1.008 -21.3126 17.6499 -0.166839 0.00837266 0.00466855 -0.00818356 0.243777 -0.0405129 0.122961 
11365 1.008 -20.1604 17.2726 0.927542 -0.00591571 -0.00921651 0.00206113 -0.186848 0.110719 -0.476916 
13586 1.008 -18.3626 13.0965 30.6066 0.0107791 0.000116333 0.000267787 -0.537503 0.413363 -0.843549 
13584 15.994 -18.5025 12.2986 30.0204 -0.00036049 0.00213018 0.000189232 -5.40661 5.68191 -4.56622 
13585 1.008 -18.6005 12.5953 29.0704 0.0309509 0.00138889 -0.00327035 -0.0620929 -3.46347 1.00999 
12727 1.008 24.5516 -5.37811 -19.2996 0.0128505 0.00238648 0.00652392 0.0490223 0.37992 -0.738372 
12726 15.994 25.0356 -4.89971 -20.0323 0.0020138 0.00365982 0.000202041 0.609066 -0.77143 -7.96454 
12728 1.008 25.922 -5.33593 -20.1873 0.00215618 0.0074891 -0.00972971 0.345851 0.728376 0.835177 
10498 1.008 3.29316 -14.56 19.4549 0.00023254 0.00452114 0.000106785 -7.24499 3.60785 1.45841 
10497 15.994 2.98538 -15.2976 20.0559 0.00631165 0.00171908 -0.000243392 2.55048 -7.36494 0.952685 
10499 1.008 3.23863 -16.1796 19.6585 0.0215094 0.00429747 0.00375514 4.12201 3.23376 -4.07259 
10346 1.008 17.3233 8.99916 -29.8017 0.0157195 -0.00155715 0.00217518 -5.74308 2.23378 -3.73684 
10344 15.994 16.9621 8.10156 -30.0542 0.00331248 0.00386715 0.000582995 -0.450466 -11.0947 4.93785 
10345 1.008 17.1817 7.43959 -29.3376 0.0142944 -0.00547987 -0.0114256 5.32107 2.90499 0.809806 
ITEM: TIMESTEP
2000
ITEM: NUMBER OF ATOMS
21
ITEM: BOX BOUNDS pp pp pp
-25.9492 25.9492
-28.2644 28.2644
-38.2289 38.2289
ITEM: ATOMS id mass x y z vx vy vz fx fy fz 
13537 1.008 -11.8852 -27.882 9.11787 0.00375045 0.00191437 -0.00317624 0.112908 0.0370794 0.144786 
13536 15.994 -11.5265 -27.8314 10.0499 -0.0028295 0.000292946 -0.000546358 2.55903 2.09227 -0.242246 
13538 1.008 -10.7951 -27.1506 10.0896 -0.0215826 0.0197152 0.0118453 -1.3899 -1.31994 -0.0822203 
12690 15.994 -19.313 21.1028 -9.9557 0.00567066 0.00392891 0.000347514 0.160997 2.26529 -1.7426 
12692 1.008 -19.9555 21.8556 -10.0989 -0.00412897 -0.000760023 0.019654 0.75549 -0.817496 -0.241177 
12691 1.008 -18.5559 21.1822 -10.6041 -0.0165168 0.00712302 -0.025168 -2.24449 -0.384206 1.47778 
11366 1.008 -19.6298 19.8819 -0.711469 0.0027934 0.00596911 0.00786256 -0.177348 -0.26443 0.122535 
11365 1.008 -20.2464 19.8612 0.800784 -0.00957216 -0.00360382 0.00270491 0.0237137 -0.0662328 -0.225077 
11364 15.994 -20.0424 19.3061 -0.00562898 -0.00672629 0.00232393 -0.000666 0.607772 0.372089 -1.90489 
13586 1.008 -19.8077 13.891 30.5617 0.00294918 0.0101599 -0.0125383 -0.0472538 -1.58449 1.22802 
13584 15.994 -20.0485 13.0828 30.0243 -0.000748213 0.00223449 0.00101496 2.45769 -3.18351 3.54939 
13585 1.008 -19.9015 13.2716 29.0533 -0.0167041 -0.00878493 -0.00356613 2.87623 0.0903218 1.67811 
12728 1.008 25.6698 -5.38977 -20.2335 -0.000774505 -0.00273432 -0.00655217 2.02848 0.915267 5.43862 
12726 15.994 24.7847 -4.9666 -20.0397 0.00385147 0.00383217 0.000272692 6.53613 -11.0635 2.86991 
12727 1.008 24.4675 -5.25501 -19.1363 0.00811001 0.00522539 0.00222535 -2.81797 1.24558 -0.398058 
10498 1.008 2.87025 -14.4846 19.5076 0.0236486 0.014015 0.0127324 2.1691 2.03168 7.01674 
10497 15.994 2.8127 -15.3235 20.0489 7.06834e-05 0.00637642 -0.00166535 0.739296 -4.40901 -7.26796 
10499 1.008 3.48811 -15.9819 19.7169 0.00950615 0.0083108 0.0136918 -0.300978 0.395348 -0.114091 
10344 15.994 17.3024 7.65709 -30.048 -0.000237253 -0.0033293 0.000695316 1.06301 5.47755 1.41702 
10345 1.008 17.5679 7.2698 -29.1651 -0.00041409 0.0166369 0.00951235 -2.30769 1.42039 -0.0255025 
10346 1.008 17.5452 8.62682 -30.0737 -0.00177478 -0.00350257 -0.020545 0.583866 -0.916487 -0.111282 
ITEM: TIMESTEP
3000
ITEM: NUMBER OF ATOMS
21
ITEM: BOX BOUNDS pp pp pp
-26.0578 26.0578
-28.3331 28.3331
-38.059 38.059
ITEM: ATOMS id mass x y z vx vy vz fx fy fz 
13538 1.008 -13.4022 -27.4969 9.49712 -0.00378103 -0.0232885 -0.0138015 1.26849 -0.666593 0.324698 
13537 1.008 -11.9185 -28.1451 9.71167 0.00574078 0.00683891 0.0112334 -0.777059 0.495032 -0.261592 
13536 15.994 -12.8594 -28.1293 10.0499 0.0015464 -0.00650085 0.000161849 1.95556 -0.136028 0.0165062 
12690 15.994 -18.5749 23.5438 -10.0596 -0.00220306 0.00695971 -0.000403897 -5.87852 -1.32827 4.23913 
12692 1.008 -17.6888 23.9038 -9.76759 -0.00405793 0.0168991 -0.0070611 -0.677949 -0.225259 0.166461 
12691 1.008 -19.2088 23.5495 -9.28626 0.0143538 -0.0341406 0.0134698 3.47263 0.142167 -3.30232 
11366 1.008 -20.9312 16.5482 -0.426794 0.0123958 0.00830212 0.010873 -1.05409 0.0106171 0.215229 
11364 15.994 -21.4309 17.2947 0.0125283 0.000514233 0.00797145 -0.00209413 4.01879 0.575814 -0.635601 
11365 1.008 -20.7983 18.0385 0.228006 -0.00398922 0.00470054 0.0223547 -1.48269 -0.554453 0.0671005 
13586 1.008 -19.1232 13.5342 30.5179 0.00461816 -0.00531585 -0.000930738 -7.34487 -0.594363 1.34196 
13584 15.994 -19.2415 12.6723 30.0248 0.00152571 -0.00526279 -0.000276717 5.57798 -11.4448 -3.48918 
13585 1.008 -18.9032 12.7738 29.0892 0.019299 -0.0128039 0.00532142 0.289345 2.89143 1.19283 
12726 15.994 25.0553 -4.96008 -20.0626 0.000492728 0.00219334 -0.000299804 7.93661 -3.52248 -0.64165 
12727 1.008 24.5123 -5.55524 -19.4702 -0.00324168 0.017581 0.0116848 -4.0831 6.14464 0.540919 
12728 1.008 25.8048 -4.55887 -19.536 -0.000526261 0.0127837 -0.00692777 0.696328 -1.03675 -0.418078 
10498 1.008 3.0856 -14.7965 19.5687 -0.0107436 -0.00372547 -0.0076826 3.40597 -0.889299 1.23245 
10497 15.994 3.14377 -15.6703 20.0514 0.00267204 0.00175892 0.000636944 -7.9265 -11.7355 9.1517 
10499 1.008 3.83524 -16.2468 19.616 0.00165004 0.00285905 -0.00242383 -3.46315 -4.09013 0.37503 
10344 15.994 17.7125 7.2124 -30.0232 -0.00541362 -0.000708549 0.000839091 5.98693 1.99548 -1.37128 
10345 1.008 18.4061 7.29612 -29.3077 -0.0019255 0.0129525 -0.00412753 -5.02205 -0.645817 4.47749 
10346 1.008 17.4311 8.12378 -30.3236 -0.0130669 -0.00638454 -0.00918637 -1.29466 0.0148528 2.68161 
ITEM: TIMESTEP
4000
ITEM: NUMBER OF ATOMS
21
ITEM: BOX BOUNDS pp pp pp
-26.0607 26.0607
-28.256 28.256
-37.9388 37.9388
ITEM: ATOMS id mass x y z vx vy vz fx fy fz 
12728 1.008 -25.8026 -5.73328 -19.6696 0.000100492 -0.0168136 -0.00934203 1.55072 1.28 -7.11071 
13537 1.008 -12.0555 -27.131 10.3161 -0.00809749 0.00398255 -0.0232139 0.254848 -1.67295 -0.100613 
13536 15.994 -11.9249 -28.0472 9.93715 0.00401354 -0.00404619 0.000335112 -1.59246 3.04333 2.17991 
11366 1.008 -18.1778 17.3775 -0.76206 0.0115721 -0.013608 0.0121692 -1.35068 0.282288 0.361628 
12690 15.994 -18.0166 22.1558 -10.0213 0.00110008 0.00439813 -0.00167421 -6.9836 0.335991 3.13081 
12692 1.008 -18.8472 22.2826 -10.5636 -0.0157219 -0.010155 0.0206709 2.01403 -0.606379 0.709965 
12691 1.008 -18.1638 22.5096 -9.09768 0.0157248 -0.00925574 0.00589391 0.600088 -0.489941 -0.633894 
11365 1.008 -18.0212 18.0735 0.707144 -0.0149509 -0.0156435 0.0159793 -1.74263 -0.1281 -0.584891 
13538 1.008 -11.8923 27.7974 10.6811 0.0193186 0.0162646 0.0178966 -0.100177 1.93848 -1.38873 
11364 15.994 -18.6723 17.7891 0.00346098 -0.00126202 -0.00306656 -0.00177402 1.07886 0.0642046 -0.829631 
13586 1.008 -18.8781 13.5338 30.556 -0.0100813 0.00831191 -0.0090199 -4.95788 -0.676974 2.29408 
13584 15.994 -19.0295 12.7026 30.0211 -0.00307084 0.000603527 0.000959504 13.1761 5.17028 0.677727 
13585 1.008 -18.6346 12.8159 29.1094 -0.0193079 -0.000550473 -0.0062046 -5.13865 6.37616 -0.947699 
12726 15.994 25.4192 -5.52664 -20.0544 -0.00150536 -0.0038387 0.00140844 -16.9761 1.75084 3.1287 
12727 1.008 24.7081 -5.91233 -19.4666 0.00118887 -0.0308373 -0.0130058 2.98837 2.43956 2.76182 
10498 1.008 3.11453 -15.0491 19.5441 -0.0165414 0.00623735 0.000901271 -1.36971 -0.371344 0.11352 
10497 15.994 3.1004 -15.9043 20.0621 0.00334483 0.00560917 0.000413481 2.74061 5.11628 -8.58476 
10499 1.008 3.38604 -16.658 19.4701 -0.00523042 0.00852195 -0.007462 3.54003 0.714149 1.17281 
10346 1.008 16.1204 6.74539 -30.1238 -0.000485007 0.00469215 0.00502376 0.716297 4.95782 5.59306 
10344 15.994 17.0907 6.51596 -30.0471 -0.00165987 -0.00215736 -0.000784681 -4.81698 -8.43796 -9.43404 
10345 1.008 17.2797 6.16729 -29.1291 0.0072902 0.0244041 0.00742683 6.45796 5.25801 -2.03492 
ITEM: TIMESTEP
5000
ITEM: NUMBER OF ATOMS
21
ITEM: BOX BOUNDS pp pp pp
-26.1162 26.1162
-28.3435 28.3435
-37.8667 37.8667
ITEM: ATOMS id mass x y z vx vy vz fx fy fz 
13537 1.008 -12.966 -27.5772 10.5683 0.00505125 -0.00481268 0.00454188 0.0858103 -0.279488 -0.109626 
13536 15.994 -12.3223 -28.0762 9.98809 0.0024521 -0.00337958 0.000427865 -2.10093 -7.31659 -1.40219 
13538 1.008 -11.6428 -27.4413 9.62061 -0.00678094 -0.000303802 -0.0113308 -0.386948 -0.912692 0.188331 
12690 15.994 -18.805 21.3595 -9.97106 -0.00169782 -0.00640431 0.000901515 3.17503 2.27917 -4.89799 
12692 1.008 -17.9947 21.7125 -9.50337 0.00099262 0.00310835 -0.010934 -0.659355 -0.46634 0.415309 
11364 15.994 -19.5334 18.1078 -0.0480189 0.00259144 -0.00258238 0.00179911 -4.92734 6.8813 2.13763 
12691 1.008 -18.6344 21.327 -10.9559 -0.0225415 0.0136823 -0.00337041 -0.730412 -0.464216 1.64578 
11365 1.008 -20.3668 17.5572 -0.00152147 -0.00624625 0.00812113 -0.0299661 2.66142 1.07464 -1.29116 
11366 1.008 -19.4716 18.689 0.76344 -0.0237706 0.00076133 0.00141959 0.979529 -0.292138 -1.54165 
13586 1.008 -18.5309 13.1759 30.9104 -0.0163606 0.00834648 0.00472878 -2.03733 8.92273 -0.242071 
13584 15.994 -18.8978 13.1021 29.983 -0.00120107 7.75834e-05 -0.00058321 4.86769 -7.90371 6.98427 
13585 1.008 -18.3407 13.65 29.359 0.00591711 -0.00133639 0.00452506 -0.891868 -3.52047 -2.97599 
12728 1.008 24.7294 -6.03572 -20.2555 0.00761103 0.00338924 0.00551826 0.920765 -0.42618 2.75183 
12727 1.008 23.4974 -5.53356 -19.3081 0.000114571 -0.00125255 -0.00176763 2.0228 2.18595 2.4664 
12726 15.994 24.1371 -5.26295 -20.0275 0.00122908 0.000187818 -0.000236378 -0.199058 -7.86436 -5.23735 
10498 1.008 2.93067 -15.4 19.5853 0.00659978 -0.00411024 -0.00490598 2.51868 0.713487 1.75203 
10497 15.994 2.99463 -16.2798 20.0564 0.0015635 -0.00209857 -0.000469467 4.43902 -4.8991 -1.6834 
10499 1.008 3.56006 -16.9057 19.5193 0.0141792 -0.00170157 0.0123551 0.458346 0.480056 0.61516 
10346 1.008 15.3265 6.31949 -29.7787 0.00190911 -0.0131952 0.0197985 1.31776 0.738675 -2.71321 
10344 15.994 16.2302 5.9938 -30.0567 0.000310772 -9.56189e-05 -0.000790561 3.82584 -1.3706 -0.953132 
10345 1.008 16.8866 6.16259 -29.3214 0.0101526 -0.010204 -0.00725461 -0.878195 -0.22905 0.182378 
ITEM: TIMESTEP
6000
ITEM: NUMBER OF ATOMS
21
ITEM: BOX BOUNDS pp pp pp
-25.9531 25.9531
-28.2672 28.2672
-38.2393 38.2393
ITEM: ATOMS id mass x y z vx vy vz fx fy fz 
13537 1.008 -11.6275 -27.7641 10.5067 0.00759937 -0.0169664 0.0152583 -2.26181 0.367709 -0.334515 
12690 15.994 -18.6084 21.9618 -9.96251 -0.00394106 -0.00330899 0.000399409 -4.52874 -3.94635 0.198424 
12692 1.008 -18.6689 21.9379 -10.9604 -0.0332531 -0.00792859 0.00230147 0.296199 -0.298517 2.11333 
12691 1.008 -18.1698 21.1252 -9.63447 0.00591065 -0.00167872 -0.00863891 -0.118919 0.147346 -0.532571 
11366 1.008 -20.0458 18.437 -0.384998 0.0170287 -0.00913183 -0.0196598 1.5855 0.795595 0.719397 
13538 1.008 -11.7368 27.3913 9.63842 -0.0113427 -0.0167022 0.0172495 -2.50909 0.876366 -0.104302 
11364 15.994 -19.2819 18.9457 0.0122381 0.000110858 0.000624302 0.000356568 0.0766263 -0.092773 0.633197 
13536 15.994 -12.2453 28.1769 9.99086 0.00397636 0.00185473 -0.00204876 8.74652 -1.14364 -1.27364 
11365 1.008 -18.5218 18.321 0.190815 0.00587257 0.011544 0.0140021 -0.743238 0.301852 -0.271056 
13586 1.008 -17.2361 11.7783 30.8534 0.00728651 0.00122984 0.000886691 1.98274 -3.40321 0.28109 
13584 15.994 -17.5529 11.3762 29.9944 0.00430132 0.00632745 -0.000375624 -6.80273 5.23472 -7.49166 
13585 1.008 -17.3209 11.9845 29.2354 -0.0201052 0.0223988 0.00507337 -0.88669 1.10997 2.81928 
12728 1.008 25.1979 -5.05933 -19.693 0.00231262 0.000452674 -0.00225552 0.051762 -0.887716 0.255632 
12727 1.008 23.6289 -5.4066 -19.4006 0.002112 0.00501121 0.00202412 -0.13846 -1.79537 -2.17157 
12726 15.994 24.2681 -5.0059 -20.0571 0.00155576 0.00258367 1.4584e-05 5.71597 7.47133 -4.18061 
10498 1.008 3.10346 -15.0174 19.6496 -0.00939179 -0.00164273 -0.000436777 0.676846 -1.55809 -1.51516 
10497 15.994 3.09457 -15.9344 20.0484 0.00207079 -0.00102948 0.00121273 7.94444 -6.62346 4.59364 
10499 1.008 3.76816 -16.5078 19.5821 -0.0130344 -0.0024221 -0.0188057 -6.4867 -4.1622 -1.92332 
10346 1.008 14.3056 6.00929 -29.6628 0.0063829 -0.00656974 0.0208645 2.32001 -0.265886 2.59501 
10344 15.994 15.0432 5.44341 -30.0313 0.000504148 -0.000761532 0.000233971 1.73992 8.33124 3.01231 
10345 1.008 15.9238 5.87726 -29.8407 0.00241774 0.00626262 -0.024577 -1.18298 -1.33869 1.9497 
ITEM: TIMESTEP
7000
ITEM: NUMBER OF ATOMS
21
ITEM: BOX BOUNDS pp pp pp
-25.9291 25.9291
-28.2637 28.2637
-38.1204 38.1204
ITEM: ATOMS id mass x y z vx vy vz fx fy fz 
13537 1.008 -9.64356 -28.1074 9.18582 0.0105666 -0.00336281 0.00598915 0.0596746 -0.0478025 0.396397 
13536 15.994 -10.1897 -28.1399 10.0229 0.00111367 0.00193029 3.14958e-05 0.735363 4.98581 -0.611706 
11365 1.008 -17.4999 17.872 -0.442856 0.00707412 0.0156543 0.0209409 -1.37388 -0.815405 0.872114 
12690 15.994 -19.4628 21.8916 -10.0159 -0.00434911 0.00454478 -0.000380549 1.39354 0.52668 -2.63198 
12692 1.008 -18.7531 22.5795 -9.86378 -0.0148467 0.016804 -0.00683819 -0.627186 -0.298627 -0.117948 
12691 1.008 -20.3632 22.3063 -9.88455 -0.0101744 -0.0122899 0.0128764 1.25522 -0.308389 -0.125121 
11364 15.994 -18.3294 17.5005 -0.0257974 0.00348542 -0.0012485 -0.00124001 3.46477 1.99988 4.91092 
13538 1.008 -10.0909 27.4893 10.4512 -0.023619 -0.00389919 -0.00648889 0.0700597 1.82724 -0.743808 
11366 1.008 -18.1017 17.0794 0.852185 -0.0092912 -0.00821513 -0.00126564 0.243373 0.114316 -0.284461 
13584 15.994 -18.7899 13.2866 30.0432 0.00177238 -0.00345307 -0.000597769 6.2946 -7.11529 -0.499892 
13585 1.008 -18.5458 12.9538 29.1323 -0.00329113 0.00159734 -0.00379459 -0.644966 4.85253 -2.08072 
13586 1.008 -18.3983 14.1961 30.1824 0.0270676 -0.0164423 0.0132794 -5.95409 -0.619738 1.60211 
12726 15.994 24.8535 -4.48341 -20.016 0.00446378 -0.00416666 0.000306214 -0.558569 -1.24446 -2.86846 
12728 1.008 25.4886 -5.08106 -20.5053 -0.00629187 -0.00426306 -0.0135883 3.34201 0.586815 4.91961 
12727 1.008 24.4601 -4.9776 -19.2407 0.0210673 -0.00420575 0.00872963 -3.55564 -0.0419263 -3.02399 
10498 1.008 3.52679 -15.1661 19.3017 0.0107523 -0.0194167 -0.0148161 -2.6288 2.67873 4.44719 
10497 15.994 3.67331 -15.8018 20.0596 0.00143017 -0.00417598 -0.000192737 5.94608 -1.68968 -2.68232 
10499 1.008 4.24982 -16.5593 19.7532 -0.00765771 -0.0184188 0.0178743 -5.1801 0.221446 -6.59555 
10346 1.008 14.1836 6.53412 -29.2752 -0.00666255 0.0127093 -0.00687762 -4.94257 -2.20795 -4.57724 
10344 15.994 14.7751 6.30812 -30.0491 -0.003511 -0.00684529 0.00124212 -7.10075 -12.8077 -1.86856 
10345 1.008 15.6531 6.7756 -29.9458 -0.00805353 0.00477086 -0.0128312 -4.06964 4.14066 -0.00928935 
ITEM: TIMESTEP
8000
ITEM: NUMBER OF ATOMS
21
ITEM: BOX BOUNDS pp pp pp
-25.9363 25.9363
-28.2997 28.2997
-38.2564 38.2564
ITEM: ATOMS id mass x y z vx vy vz fx fy fz 
13537 1.008 -11.4628 -27.7448 10.5357 0.00582017 0.00106886 0.00478825 0.212384 -0.239793 0.106592 
13536 15.994 -10.7539 -28.1698 9.97274 -0.000300259 -0.00165834 -0.000859827 4.70481 4.57362 2.26655 
13538 1.008 -9.97224 -27.5507 9.89681 0.00935216 -0.0126521 0.00885468 -0.094091 -0.416933 0.156508 
12690 15.994 -17.9974 22.1219 -10.0438 0.00511355 -0.00773897 0.00157885 -11.9541 2.26166 2.51607 
12692 1.008 -18.6449 22.6845 -9.52982 -0.0251356 -0.0168382 -0.0265611 2.37693 -2.24018 -1.68018 
12691 1.008 -18.1004 21.1643 -9.77487 0.0110736 -0.0083992 0.00150947 0.0654065 0.10077 0.00132335 
11364 15.994 -17.838 18.4507 -0.0638148 0.00285513 0.00422006 0.000240323 2.99578 -5.984 1.63158 
11366 1.008 -18.4381 17.7996 0.400907 -0.00391728 -0.00893386 -0.0269339 1.3168 1.40529 -0.905866 
11365 1.008 -17.4108 19.0518 0.611645 -0.0100305 -0.0123373 0.0231207 -1.01628 -1.48147 -1.59141 
13584 15.994 -18.8478 11.6886 30.0148 -0.00308137 -0.000895185 -0.00127513 -8.78989 6.99294 0.54807 
13585 1.008 -18.5178 12.2117 29.229 0.0152797 -0.0146805 -0.00271424 0.495282 -3.37892 -0.442701 
13586 1.008 -18.0682 11.3414 30.5359 -0.0152413 0.0081198 0.0229468 -2.5613 -1.85635 -2.26876 
12727 1.008 23.5746 -4.86937 -19.4374 -0.00440477 0.002468 -0.00500846 0.652754 5.60595 3.54148 
12726 15.994 24.2784 -4.50878 -20.0495 0.00210099 -0.00211864 -0.000225774 0.0361586 -7.34872 -6.88485 
12728 1.008 25.1723 -4.86418 -19.7764 -0.00149223 -0.00438157 0.00859083 -0.319604 0.167047 0.594007 
10498 1.008 3.0124 -14.4868 19.4246 0.0328764 0.00605594 0.000899523 -0.191316 -0.426353 3.38499 
10497 15.994 3.18606 -15.239 20.0603 0.00216808 -0.00222138 -0.000508034 2.43507 -4.45245 -6.03382 
10499 1.008 3.76903 -15.9212 19.6189 -0.00426632 -0.0126862 0.00716148 -2.77173 0.209678 -3.85252 
10346 1.008 13.4487 6.09899 -29.4358 -0.00775687 0.00201371 -0.00308149 -0.587928 0.305758 -0.387135 
10344 15.994 14.2163 5.84645 -30.0249 -0.00445823 0.00395652 0.000386537 -2.86086 4.13343 4.31897 
10345 1.008 14.8031 6.64333 -30.1686 -0.00987557 0.00732935 -0.00305172 0.263527 -0.0946476 0.996891 
ITEM: TIMESTEP
9000
ITEM: NUMBER OF ATOMS
21
ITEM: BOX BOUNDS pp pp pp
-25.8896 25.8896
-28.1869 28.1869
-38.4046 38.4046
ITEM: ATOMS id mass x y z vx vy vz fx fy fz 
13538 1.008 -12.6681 -28.0313 10.5018 0.0192976 0.0116607 0.00841725 0.565119 -0.239488 0.255691 
12690 15.994 -19.8151 22.3323 -10.0625 -0.00057949 -0.00187083 -0.00015621 -1.31974 -0.198951 -2.46525 
12692 1.008 -19.4964 21.6765 -9.37816 0.0159321 0.000782006 -0.00531437 -0.129261 0.571484 -0.652575 
12691 1.008 -20.423 22.9978 -9.6295 -0.00659123 -0.0125503 0.00779295 0.497859 -0.41016 0.0855072 
11365 1.008 -18.2513 17.8257 -0.811986 0.00257473 0.0230397 -0.0119122 0.652105 0.644329 0.958918 
13536 15.994 -11.9701 27.9043 9.93547 0.0093211 0.0065829 6.2317e-05 1.75659 3.12996 2.97678 
11366 1.008 -18.9548 18.4424 0.526877 -0.00421896 0.00370922 -0.00658209 0.417276 0.183797 0.241972 
13537 1.008 -11.313 27.431 10.5221 -0.00707939 -0.0279116 -0.00940604 -2.51431 1.95827 -1.81477 
11364 15.994 -18.0977 18.362 0.0179686 0.000352086 0.00343057 0.00116558 -0.579444 -0.446593 -1.66283 
13584 15.994 -18.3538 12.6299 30.0077 -0.0043678 -0.00651075 0.000285429 -0.37672 -3.15314 10.1603 
13585 1.008 -18.2891 13.1912 29.1826 -0.00327098 -0.0153474 -0.00562591 -2.52292 -3.69055 -1.59527 
13586 1.008 -17.7126 12.9714 30.6949 -0.0124101 0.00695253 0.00109699 2.99057 1.5891 -3.93086 
12727 1.008 24.4458 -4.53004 -19.2157 0.00340052 -0.00125689 0.000388957 -2.68728 -5.03502 -4.13009 
12726 15.994 24.7303 -4.02886 -20.0329 0.00673655 -0.0027662 0.000628316 2.64835 2.62352 1.5662 
12728 1.008 25.673 -4.27144 -20.262 -0.00116042 -0.0230168 -0.0103585 -1.78818 -0.846497 -0.634141 
10498 1.008 2.81068 -14.6415 19.5208 0.000287288 -0.00353993 -0.00121575 3.7678 0.907451 0.079712 
10497 15.994 3.13865 -15.4195 20.0567 0.00528501 -0.000898972 -0.00045197 1.18864 -7.54377 2.90878 
10499 1.008 3.90122 -15.856 19.5793 0.0194495 0.0141013 0.00838719 -6.04159 -6.43985 -1.57458 
10346 1.008 12.8219 6.83844 -29.2873 0.00161697 -0.0117853 0.00770139 2.41452 0.0600518 0.858218 
10344 15.994 13.2643 6.3022 -30.0061 -0.000596064 -0.00289076 -0.000285605 -3.18299 -2.29141 -1.63403 
10345 1.008 13.7696 6.91334 -30.6154 -0.0150486 0.00616933 -0.00316968 -1.08033 -0.878448 -0.384872 
ITEM: TIMESTEP
10000
ITEM: NUMBER OF ATOMS
21
ITEM: BOX BOUNDS pp pp pp
-25.7903 25.7903
-28.2926 28.2926
-38.3199 38.3199
ITEM: ATOMS id mass x y z vx vy vz fx fy fz 
12728 1.008 -25.6953 -4.92116 -20.3558 0.00481008 0.00200894 -0.00208165 -0.260579 -0.549522 0.831066 
13536 15.994 -10.0244 -28.2164 9.96821 -0.00145964 -0.00279341 -0.000325666 0.573485 -2.36983 -5.30642 
13537 1.008 -10.3321 -27.3556 9.56279 0.019012 0.00850754 0.00814918 0.428155 -1.13481 0.952686 
13538 1.008 -10.2531 -28.2275 10.9416 -0.0123158 -0.0119226 -0.00298182 0.237585 0.287973 -0.797002 
12690 15.994 -18.2946 21.7493 -9.94857 0.00132727 0.000982814 -0.000541807 5.27794 1.71516 -5.48207 
11366 1.008 -20.4559 20.2221 -0.671953 0.0049711 0.0092034 0.00413961 0.442245 -0.163502 0.341857 
12692 1.008 -18.8545 22.0254 -10.7298 -0.0133433 -0.0205686 0.00236345 1.35088 -0.926866 0.680962 
12691 1.008 -17.967 20.8146 -10.0863 0.0215577 0.00707796 0.00623343 -0.361311 1.15821 -0.512141 
11364 15.994 -19.8791 19.7435 -0.00996456 0.000586982 -0.00279432 -0.000717823 2.38469 0.384584 0.829769 
11365 1.008 -19.8172 20.2825 0.830061 -4.88975e-05 -0.0151448 0.00725013 -0.00266697 -0.0985458 -0.477718 
13584 15.994 -18.3207 12.3949 30.0324 0.0110742 -0.00248575 -0.000349573 -1.96849 -2.91314 -0.512539 
13585 1.008 -18.326 12.7725 29.1065 0.0101132 0.00957538 0.00458176 -0.510451 0.883062 0.848782 
13586 1.008 -17.383 12.3745 30.3793 0.0106248 -0.000761549 0.000964928 -0.225642 0.328561 0.23722 
12727 1.008 24.477 -5.00099 -19.5324 -0.00256346 -0.0109578 -0.0159471 -0.181526 1.5619 -0.0436874 
12726 15.994 25.112 -4.39154 -20.007 0.00272109 -0.0031616 0.00113624 0.667084 1.1246 4.33257 
10498 1.008 3.25786 -15.4778 19.6632 0.00136003 -0.00393648 0.00566769 -8.99338 1.67661 -4.1368 
10497 15.994 2.89295 -16.3239 20.0517 -0.00521983 -0.00340511 0.000676982 4.13204 -2.13505 2.50244 
10499 1.008 3.21662 -17.104 19.5162 -0.0282558 -0.00122689 -0.0164094 0.994149 3.12716 -0.425697 
10346 1.008 13.4905 6.80131 -29.213 -0.00682036 -0.00394969 -0.00208764 -1.20588 -0.900564 0.127694 
10344 15.994 13.5833 6.20399 -30.0096 0.00329115 -0.00596669 0.000612079 7.62216 0.842651 -0.750806 
10345 1.008 14.2656 6.58412 -30.6342 -0.0130893 0.0099124 -0.00762426 0.389875 -1.03406 1.4625 
ITEM: TIMESTEP
11000
ITEM: NUMBER OF ATOMS
21
ITEM: BOX BOUNDS pp pp pp
-25.9422 25.9422
-28.2889 28.2889
-38.1745 38.1745
ITEM: ATOMS id mass x y z vx vy vz fx fy fz 
13538 1.008 -10.5619 -26.8599 9.76892 0.00217305 -0.00320859 -0.00142888 0.0924497 0.162667 0.0958193 
13536 15.994 -10.7567 -27.8198 9.97028 0.00167151 -0.00280232 5.35407e-05 -1.33688 3.12245 0.921115 
13537 1.008 -10.1538 -28.1362 10.7027 0.00145589 -0.00196993 0.000579343 -0.0777803 0.0340146 -0.0207609 
12690 15.994 -18.0552 21.6964 -9.97829 -0.00125876 -0.000944119 0.00138223 -4.30002 0.508268 -0.562748 
12692 1.008 -17.2653 21.0965 -9.85144 -0.00122476 0.00227715 0.0163822 -0.41264 0.728422 -0.328836 
12691 1.008 -17.7788 22.508 -10.493 -0.00627061 -0.0244098 -0.0383141 -0.880465 -4.47805 2.60458 
11366 1.008 -20.1358 18.0926 -0.82171 -0.016705 0.0135992 0.00476942 0.857173 0.486965 0.172178 
11365 1.008 -20.0572 17.8424 0.790398 -0.00842568 0.0158251 0.00469409 0.786166 0.467838 0.0626954 
11364 15.994 -19.5884 18.2408 0.0019734 -0.00546717 0.00185248 -0.000596425 -1.00758 -0.37926 0.294099 
13584 15.994 -19.268 12.9247 30.0224 -0.000809506 -0.00297725 -0.000199312 -6.25131 -2.11293 -0.365737 
13585 1.008 -19.1401 13.1901 29.0668 -0.00439038 0.00169004 0.000618468 9.82597 -1.76887 0.990218 
13586 1.008 -19.4235 13.7417 30.5778 -0.0102074 -0.00662432 0.00254403 0.89179 1.06187 -1.89541 
12728 1.008 25.9042 -4.24657 -20.051 -0.000544501 0.0432394 -0.000770999 -4.81544 -4.31681 -1.67873 
12727 1.008 24.5751 -4.6921 -19.2127 0.0196168 0.00534017 0.0110748 -3.49704 1.71753 -2.08306 
12726 15.994 24.9042 -4.24871 -20.0464 -0.000478811 -0.00176718 -0.000649385 1.08088 0.244547 2.09013 
10498 1.008 3.0506 -15.5149 19.5867 -0.0146538 0.00746021 0.00162224 8.10948 -1.1496 2.91715 
10497 15.994 2.92105 -16.3841 20.0638 0.00762107 0.00326313 0.000115717 -11.5573 0.228719 0.232609 
10499 1.008 2.92413 -17.1326 19.4007 0.00606491 0.00641865 -0.00345832 9.74109 -0.326535 0.556574 
10346 1.008 13.14 6.23828 -29.1052 -0.012602 -0.00859902 0.00532983 -2.17526 4.98924 -0.460089 
10344 15.994 12.8326 5.96232 -30.0159 -0.00213086 5.85615e-05 -0.000824286 3.94052 2.97839 12.2017 
10345 1.008 12.9053 6.73848 -30.6422 0.00366617 0.00644601 0.00774916 2.42999 -3.68247 -3.20012 
ITEM: TIMESTEP
12000
ITEM: NUMBER OF ATOMS
21
ITEM: BOX BOUNDS pp pp pp
-25.9747 25.9747
-28.2303 28.2303
-38.4123 38.4123
ITEM: ATOMS id mass x y z vx vy vz fx fy fz 
13536 15.994 -10.3666 -27.6112 10.0479 0.00796714 -0.00722531 -0.000117517 2.32928 -0.693894 -1.91143 
13538 1.008 -10.5513 -27.7433 9.07404 0.00418006 0.0144836 -0.00234238 -0.030859 0.0702052 1.11144 
13537 1.008 -9.44636 -27.238 10.1656 0.00567437 -0.00291656 0.00420703 -0.0563147 0.021867 0.39196 
12690 15.994 -18.6956 22.0433 -10.0335 -0.00314454 0.00417742 0.00186675 3.54408 5.24989 -2.35345 
12691 1.008 -18.6512 22.9775 -9.67936 -0.0102505 0.0136514 -0.0222159 1.12589 -1.23725 -1.02539 
11364 15.994 -19.9119 18.618 -0.0252115 0.00240368 0.00354193 0.000274878 2.62615 -2.5366 3.67094 
11365 1.008 -20.7596 18.6933 -0.550386 0.00460505 0.00640622 -0.00287559 0.298364 -0.071881 0.134402 
12692 1.008 -19.5752 21.6352 -9.78921 -0.00922883 0.0117215 -0.00740394 1.05846 -0.805754 -0.813725 
11366 1.008 -20.1266 18.5726 0.950419 -0.00225251 -0.0122588 -0.00148591 0.160834 -0.0108465 -0.440234 
13584 15.994 -18.8702 12.7644 30.0288 -0.00221665 -0.00114723 -0.000358268 -8.44673 -5.0499 3.21621 
13585 1.008 -18.8113 12.9561 29.0491 -0.00648712 0.0138438 0.00232624 0.640799 1.90174 1.3232 
13586 1.008 -18.0784 13.1597 30.4944 -0.0043193 -0.00130736 0.00335841 -2.40763 0.396848 2.68821 
12728 1.008 25.4471 -4.76787 -20.0425 0.00506828 0.000509594 0.00809993 0.0295731 0.38174 -3.8084 
12727 1.008 24.0767 -4.45238 -19.2119 0.0050167 0.0123188 0.0035691 -0.818941 -7.51526 -2.67967 
12726 15.994 24.5895 -4.25354 -20.047 0.00360312 -0.00198159 -0.000735425 1.92494 2.59329 6.08917 
10498 1.008 3.03058 -15.1072 19.5216 0.0149833 0.00530391 0.00201588 1.65045 1.20982 2.10269 
10497 15.994 2.91642 -15.9435 20.0577 0.000360838 0.00586007 -0.000230678 4.59065 9.53033 -1.96627 
10499 1.008 3.31658 -16.7147 19.5625 -0.00540937 0.00164911 0.00164431 3.23784 2.08836 0.209676 
10346 1.008 13.8551 6.0991 -29.0708 0.00536154 3.53843e-05 0.00176652 2.83254 -1.87112 0.518952 
10344 15.994 14.128 5.97856 -30.0252 -0.0044776 -0.00672323 -0.000186792 -9.94113 2.34726 -5.61826 
10345 1.008 13.9636 6.82657 -30.5291 0.013808 -0.00236166 0.00119733 1.5081 0.91241 1.93757 
ITEM: TIMESTEP
13000
ITEM: NUMBER OF ATOMS
21
ITEM: BOX BOUNDS pp pp pp
-25.8841 25.8841
-28.2365 28.2365
-38.3852 38.3852
ITEM: ATOMS id mass x y z vx vy vz fx fy fz 
12728 1.008 -25.7831 -4.73984 -19.9726 -0.00467799 -0.00536843 -0.0131407 -0.708169 -0.23873 -1.36527 
13537 1.008 -10.9669 -28.1249 10.8981 -0.00865321 -0.000237367 0.00239901 -0.304672 0.0384598 -0.00171022 
13536 15.994 -11.3749 -28.077 9.98637 -0.00272205 -0.00427117 -0.000468079 -1.68292 4.1723 1.26914 
12690 15.994 -19.6783 21.5833 -9.94888 -2.48478e-05 -0.00946008 -4.59982e-05 2.76909 2.6301 -6.13292 
12691 1.008 -20.5795 21.1518 -9.90661 0.00962281 -0.0294822 0.00119845 1.37579 0.411529 -0.532422 