LAMMPS data file via write_data, version 5 Oct 2015, timestep = 34000

14048 atoms
58 atom types
11360 bonds
54 bond types
9680 angles
55 angle types
5536 dihedrals
43 dihedral types
336 impropers
3 improper types

-2.5850098325735171e+01 2.5850098325735171e+01 xlo xhi
-2.8300540664590159e+01 2.8300540664590159e+01 ylo yhi
-3.8362834100192210e+01 3.8362834100192210e+01 zlo zhi

Masses

1 15.9994
2 15.9994
3 15.9994
4 15.9994
5 15.9994
6 14.0067
7 14.0067
8 14.0067
9 14.0067
10 14.0067
11 14.0067
12 12.011
13 12.011
14 13.019
15 14.027
16 15.035
17 16.043
18 14.027
19 13.019
20 1.008
21 1.008
22 999
23 32.06
24 63.546
25 63.546
26 55.847
27 65.37
28 24.305
29 40.08
30 30.9738
31 39.948
32 18.9984
33 35.453
34 79.904
35 15.035
36 15.9994
37 22.9898
38 35.453
39 12.011
40 35.453
41 1.008
42 32.06
43 15.035
44 15.9994
45 12.011
46 35.453
47 18.9984
48 12.011
49 14.027
50 15.9994
51 12.011
52 15.9994
53 14.0067
54 28.08
55 999
56 999
57 15.994
58 1.008

Pair Coeffs # lj/cut/coul/long/gpu

1 0.30699 2.7601
2 0.41401 2.6259
3 0.25371 2.8492
4 0.25371 2.8492
5 0.15604 3.1656
6 0.15355 3.1365
7 0.15355 3.1365
8 0.15355 3.1365
9 0.15355 3.1365
10 0.15355 3.1365
11 0.15355 3.1365
12 0.066577 3.5812
13 0.0016789 6.6395
14 0.022773 5.0192
15 0.09853 4.0704
16 0.20812 3.7479
17 0.30682 3.7028
18 0.11503 3.9547
19 0.14617 3.6818
20 0.028411 2.3734
21 0 0
22 0 0
23 0.039532 2.309
24 0 0
25 0 1
26 0 0
27 0 0
28 0 0
29 0 0
30 0.58722 3.3856
31 0 0
32 0 0
33 0 0
34 0 0
35 0 0
36 0 0
37 0 0
38 0 0
39 0 0
40 0 0
41 0 0
42 0 0
43 0 0
44 0 0
45 0 0
46 0 0
47 0 0
48 0 0
49 0 0
50 0 0
51 0 0
52 0 0
53 0 0
54 0 0
55 0 0
56 0 0
57 0.15543 3.1655
58 0 0

Bond Coeffs # harmonic

1 375.23 1
2 446.93 1
3 349.266 1.09
4 1109.27 1.12
5 600.228 1.23
6 500.406 1.25
7 499.72 1.32
8 374.994 1.33
9 448.133 1.33
10 498.865 1.33
11 450.606 1.34
12 502.104 1.34
13 450.896 1.36
14 500.667 1.38
15 399.894 1.39
16 498.714 1.39
17 400.048 1.4
18 399.782 1.43
19 450.121 1.43
20 300.214 1.435
21 449.832 1.47
22 299.969 1.48
23 399.958 1.48
24 450.215 1.48
25 450.097 1.5
26 299.837 1.52
27 400.025 1.53
28 299.844 1.61
29 299.72 1.63
30 205.971 1.78
31 449.805 1.78
32 449.818 1.83
33 300.038 1.87
34 59.9664 1.98
35 60.0368 2
36 500.295 2.04
37 63.0342 2.21
38 554.48 1
39 349.92 1.1
40 599.78 1.758
41 449.818 1.53
42 444.33 1.938
43 599.664 1.76
44 501.014 1.265
45 448.645 1.35
46 555.115 1.633
47 350.241 2.3384
48 600.147 2.9028
49 445.873 2.7939
50 443.805 2.9119
51 409.318 2.077
52 600.159 2.8741
53 527.1 1
54 629.318 0.94

Improper Coeffs # harmonic

1 20.0071 0
2 40.0141 35.2644
3 80.0282 0

Atoms # full

11307 1775 57 -8.1999999999999995e-01 -2.4010788849273059e+01 -2.6334724144595953e+01 -3.3996699662396949e+01 3 -6 0
10705 1574 58 4.0999999999999998e-01 -2.4021024794735155e+01 -2.1440451832100315e+01 -3.0003506766760729e+01 8 -3 0
10704 1574 57 -8.1999999999999995e-01 -2.3142342062078775e+01 -2.1829882309831159e+01 -2.9727346608000989e+01 8 -3 0
10706 1574 58 4.0999999999999998e-01 -2.3009948613010096e+01 -2.2710688130393002e+01 -3.0181947299051799e+01 8 -3 0
12037 2018 58 4.0999999999999998e-01 -1.9139312162686785e+01 -2.4843467008431812e+01 -3.2476801616685250e+01 0 -2 0
12036 2018 57 -8.1999999999999995e-01 -1.9882221142373506e+01 -2.4176977964710026e+01 -3.2539083966946265e+01 0 -2 0
13570 2529 58 4.0999999999999998e-01 -2.4645165974100333e+01 -2.5306073794845233e+01 -2.8117823890371000e+01 3 -2 0
12038 2018 58 4.0999999999999998e-01 -1.9577179083451210e+01 -2.3301164215521208e+01 -3.2165044192142730e+01 0 -2 0
12831 2283 57 -8.1999999999999995e-01 -2.4074747948677665e+01 -2.6828476107625406e+01 -2.8156399784812869e+01 -4 8 0
7985 667 58 4.0999999999999998e-01 -1.3891394281402855e+01 -2.7488763871060318e+01 -3.3935847440420488e+01 -5 0 1
7983 667 57 -8.1999999999999995e-01 -1.4858916619212371e+01 -2.7737783264632647e+01 -3.3979326132677706e+01 -5 0 1
12824 2280 58 4.0999999999999998e-01 -1.9464655365143013e+01 -2.0989755298488546e+01 -3.1863242151012393e+01 5 1 0
12822 2280 57 -8.1999999999999995e-01 -1.9316773739117242e+01 -2.1771262840286063e+01 -3.1257113852136193e+01 5 1 0
12823 2280 58 4.0999999999999998e-01 -1.8726573669997318e+01 -2.1497677748409856e+01 -3.0497615735953406e+01 5 1 0
12285 2101 57 -8.1999999999999995e-01 -1.6585775533009915e+01 -2.4501135398938636e+01 -3.0099155638867074e+01 -4 5 0
12286 2101 58 4.0999999999999998e-01 -1.6458634837229340e+01 -2.5401087297322889e+01 -3.0516203246797978e+01 -4 5 0
7089 369 57 -8.1999999999999995e-01 -1.2500641428875143e+01 -2.6209144467914872e+01 -3.3464113826449655e+01 11 11 1
11563 1860 58 4.0999999999999998e-01 -1.5444246589011108e+01 -2.4993681322343157e+01 -3.3951419665052441e+01 -4 -5 0
13582 2533 58 4.0999999999999998e-01 -1.5340848036596602e+01 -1.9242729601382372e+01 -3.2960129320617355e+01 -5 -4 0
7642 553 58 4.0999999999999998e-01 -2.4476549318248900e+01 -1.9596956578159965e+01 -3.3838922044226493e+01 -8 2 1
11299 1772 58 4.0999999999999998e-01 -1.2369906928588037e+00 -2.8087217513068936e+01 -2.9315995510288147e+01 -2 3 0
8343 787 57 -8.1999999999999995e-01 -2.1677443859794501e+01 -1.8409136590673146e+01 -3.4941350763584843e+01 5 0 1
8344 787 58 4.0999999999999998e-01 -2.1618687468751517e+01 -1.9400618292399177e+01 -3.4825100424470158e+01 5 0 1
7643 553 58 4.0999999999999998e-01 -2.4738753664696663e+01 -2.0467862991287731e+01 -3.2482288531792022e+01 -8 2 1
6638 218 58 4.0999999999999998e-01 -1.8537688133708812e+01 -2.3198862317494868e+01 -3.6035913954146423e+01 4 0 1
6636 218 57 -8.1999999999999995e-01 -1.7782188434337087e+01 -2.2905799978881937e+01 -3.6621873182683942e+01 4 0 1
6637 218 58 4.0999999999999998e-01 -1.7622850392775746e+01 -2.3593567604010044e+01 -3.7330114918907221e+01 4 0 1
13616 2544 58 4.0999999999999998e-01 -1.5905855079462066e+01 -2.1771248787887025e+01 -3.6310523531764531e+01 -7 -6 0
11562 1860 57 -8.1999999999999995e-01 -1.6326382922286388e+01 -2.4837706450757196e+01 -3.4395845956399405e+01 -4 -5 0
13633 2550 58 4.0999999999999998e-01 -1.9743047495164301e+01 -2.0142624657733194e+01 -3.3732158498664184e+01 3 -1 0
13614 2544 57 -8.1999999999999995e-01 -1.5452599870863617e+01 -2.1214939052634477e+01 -3.5614034095157749e+01 -7 -6 0
13632 2550 57 -8.1999999999999995e-01 -1.9127380698960380e+01 -1.9622620558782106e+01 -3.3140074200052531e+01 3 -1 0
7775 597 58 4.0999999999999998e-01 -2.2381587819139966e+01 -2.4717427134790384e+01 -3.0299687823515541e+01 15 0 1
13583 2533 58 4.0999999999999998e-01 -1.3881827642017067e+01 -1.8783622943381950e+01 -3.3532936239985453e+01 -5 -4 0
11564 1860 58 4.0999999999999998e-01 -1.6361061324400627e+01 -2.3903218602716812e+01 -3.4750156635550219e+01 -4 -5 0
9903 1307 57 -8.1999999999999995e-01 -2.1994095220230648e+01 -1.9525118043311398e+01 -3.0574298550957018e+01 -5 0 1
6627 215 57 -8.1999999999999995e-01 -2.1634665229949711e+01 -2.5831921354326656e+01 -2.9080025544126620e+01 0 0 1
7773 597 57 -8.1999999999999995e-01 -2.2523299444087080e+01 -2.4206911608111273e+01 -3.1147815091290106e+01 15 0 1
9904 1307 58 4.0999999999999998e-01 -2.2454801919753571e+01 -1.9215304845141155e+01 -3.1406038798850354e+01 -5 0 1
9905 1307 58 4.0999999999999998e-01 -2.2400065904748239e+01 -2.0386478107285754e+01 -3.0268927998371986e+01 -5 0 1
8300 772 58 4.0999999999999998e-01 -1.9966453962591984e+01 -2.3401422664450845e+01 -3.4301022205809019e+01 7 9 1
11326 1781 58 4.0999999999999998e-01 -1.4070450144870533e+01 -2.3789347160557156e+01 -2.9926908244772658e+01 -1 -2 0
6598 205 58 4.0999999999999998e-01 -1.4976841351427444e+01 -2.6989238622529552e+01 -3.0869822521494399e+01 -7 4 1
7641 553 57 -8.1999999999999995e-01 -2.4049458277862577e+01 -2.0178411534518116e+01 -3.3146447400257870e+01 -8 2 1
9998 1338 58 4.0999999999999998e-01 -1.5660975076990290e+01 -2.6971564158308428e+01 -3.5541008151946158e+01 3 4 1
13634 2550 58 4.0999999999999998e-01 -1.8774815935650274e+01 -1.8830614353889693e+01 -3.3638505003644823e+01 3 -1 0
8299 772 58 4.0999999999999998e-01 -2.0427575728018823e+01 -2.4493513403277525e+01 -3.5424573470905813e+01 7 9 1
12287 2101 58 4.0999999999999998e-01 -1.6832805140508651e+01 -2.4611250578219483e+01 -2.9136405911500162e+01 -4 5 0
9613 1210 58 4.0999999999999998e-01 -1.6280192408343204e+01 -2.2741265735062033e+01 -3.0436647595912177e+01 11 1 1
11204 1740 58 4.0999999999999998e-01 -2.1585478428720794e+01 -2.1922391270694053e+01 -3.4674442527711165e+01 8 7 0
13581 2533 57 -8.1999999999999995e-01 -1.4535132435340484e+01 -1.8677433824318538e+01 -3.2783311144630105e+01 -5 -4 0
11202 1740 57 -8.1999999999999995e-01 -2.1566574495766961e+01 -2.1007712248933402e+01 -3.4270695814115243e+01 8 7 0
9023 1013 58 4.0999999999999998e-01 -2.4212445347500363e+01 -2.6223132712767086e+01 -3.5643685295133153e+01 -3 -4 1
10855 1624 58 4.0999999999999998e-01 -1.7825273300979056e+01 -2.5515478017857518e+01 -3.4934976473802060e+01 11 8 0
6761 259 58 4.0999999999999998e-01 -1.4702481036684780e+01 -2.0930292102536526e+01 -2.9828842585647973e+01 -2 2 1
10209 1409 57 -8.1999999999999995e-01 -1.2995774566855143e+01 -2.7347372918445213e+01 -3.7337015110480863e+01 6 2 0
9784 1267 58 4.0999999999999998e-01 -1.8199770806993524e+01 -2.1059314543992372e+01 -3.6840170196660921e+01 6 11 1
9996 1338 57 -8.1999999999999995e-01 -1.5863888693079200e+01 -2.7074561255167914e+01 -3.6514791610533486e+01 3 4 1
7774 597 58 4.0999999999999998e-01 -2.1808253064544310e+01 -2.4445934490879761e+01 -3.1804772531678786e+01 15 0 1
9783 1267 57 -8.1999999999999995e-01 -1.8372106308887151e+01 -2.0082809454236163e+01 -3.6969550763319184e+01 6 11 1
9424 1147 58 4.0999999999999998e-01 -2.1121194249796478e+01 -2.6933730069893400e+01 -3.0385632833842291e+01 -6 4 1
8298 772 57 -8.1999999999999995e-01 -2.0168398695324676e+01 -2.3540038731194944e+01 -3.5270578866756601e+01 7 9 1
9021 1013 57 -8.1999999999999995e-01 -2.4135640588797909e+01 -2.6336522057289635e+01 -3.6634281626464158e+01 -3 -4 1
9997 1338 58 4.0999999999999998e-01 -1.6452138188270226e+01 -2.6323453448750264e+01 -3.6814463657524612e+01 3 4 1
9612 1210 57 -8.1999999999999995e-01 -1.5847208465116690e+01 -2.1876040242138405e+01 -3.0689456013710377e+01 11 1 1
12832 2283 58 4.0999999999999998e-01 -2.4370609988726518e+01 -2.7541478352035242e+01 -2.8792095270099519e+01 -4 8 0
9785 1267 58 4.0999999999999998e-01 -1.8517004416659205e+01 -1.9895260029352752e+01 -3.7941078276070911e+01 6 11 1
6597 205 57 -8.1999999999999995e-01 -1.5807384060477176e+01 -2.6938356213133027e+01 -3.1424458568887868e+01 -7 4 1
12282 2100 57 -8.1999999999999995e-01 -1.8564993895906639e+01 -2.6967705691116613e+01 -3.2367965153093223e+01 7 2 0
9425 1147 58 4.0999999999999998e-01 -2.0036233946108002e+01 -2.7344235299553848e+01 -3.1535419959123313e+01 -6 4 1
11695 1904 58 4.0999999999999998e-01 -2.4611414958876981e+01 -2.3937841087771726e+01 -3.1109821320611694e+01 -3 2 0
9614 1210 58 4.0999999999999998e-01 -1.6010754388885328e+01 -2.1691558150956329e+01 -3.1658607533623279e+01 11 1 1
9423 1147 57 -8.1999999999999995e-01 -2.0853987412065322e+01 -2.7639747522200512e+01 -3.1041495640047195e+01 -6 4 1
11694 1904 57 -8.1999999999999995e-01 -2.5531564503801665e+01 -2.4042908968929950e+01 -3.0732606633912873e+01 -3 2 0
10854 1624 57 -8.1999999999999995e-01 -1.8588156468842726e+01 -2.6107249518153218e+01 -3.5195395736192395e+01 11 8 0
12362 2126 58 4.0999999999999998e-01 -2.0755764661061132e+01 -2.2008709214838344e+01 -3.6633400841925983e+01 -4 6 0
10856 1624 58 4.0999999999999998e-01 -1.8381617742678646e+01 -2.7051084863766413e+01 -3.4937482592677448e+01 11 8 0
6599 205 58 4.0999999999999998e-01 -1.5601438002650701e+01 -2.7222686887210180e+01 -3.2360821546969163e+01 -7 4 1
10685 1567 58 4.0999999999999998e-01 -2.4241976553874128e+01 -2.2996147461876632e+01 -3.6508424764905627e+01 -7 -2 0
9022 1013 58 4.0999999999999998e-01 -2.4713613473037473e+01 -2.7097513168131758e+01 -3.6928973012653614e+01 -3 -4 1
11203 1740 58 4.0999999999999998e-01 -2.2376289903614612e+01 -2.0878722412575510e+01 -3.3698213977910399e+01 8 7 0
11309 1775 58 4.0999999999999998e-01 -2.4675710353234965e+01 -2.6353153858986207e+01 -3.3249999289338355e+01 3 -6 0
10402 1473 58 4.0999999999999998e-01 -1.9534752193821824e+01 -2.7020630476408872e+01 -3.6697895259916166e+01 3 5 0
6628 215 58 4.0999999999999998e-01 -2.2561964606234049e+01 -2.6075863432070861e+01 -2.8796103854755785e+01 0 0 1
6629 215 58 4.0999999999999998e-01 -2.0995224355733882e+01 -2.6029460459744541e+01 -2.8336981737456476e+01 0 0 1
11325 1781 57 -8.1999999999999995e-01 -1.3386520974943497e+01 -2.3805852785913409e+01 -2.9197532712008080e+01 -1 -2 0
10684 1567 58 4.0999999999999998e-01 -2.3862680708299482e+01 -2.4137490486566531e+01 -3.7613472598561067e+01 -7 -2 0
4648 87 8 -5.0000000000000000e-01 -5.8332814993489834e-01 -5.3715240403504145e+00 -2.6314970115397042e+01 0 0 0
13819 2612 58 4.0999999999999998e-01 -1.2771958639326314e+01 -2.6752762463775341e+01 -2.9602267731159806e+01 15 -2 0
10480 1499 58 4.0999999999999998e-01 -1.6469143824968441e+01 -2.0828030941531058e+01 -3.4070858930441041e+01 3 -5 0
12360 2126 57 -8.1999999999999995e-01 -2.1366912200259019e+01 -2.1932908736862135e+01 -3.7421294466298185e+01 -4 6 0
10479 1499 57 -8.1999999999999995e-01 -1.6563524928137074e+01 -2.0499322308770967e+01 -3.3131137219161729e+01 3 -5 0
10683 1567 57 -8.1999999999999995e-01 -2.3636790769345740e+01 -2.3225619477342605e+01 -3.7270734171923863e+01 -7 -2 0
10481 1499 58 4.0999999999999998e-01 -1.7506752824868290e+01 -2.0207356367067312e+01 -3.2972773492531751e+01 3 -5 0
7885 634 58 4.0999999999999998e-01 -1.3611965615945778e+01 -1.8433372245415576e+01 -3.5414976293462487e+01 -9 6 1
7314 444 57 -8.1999999999999995e-01 -1.5343011808460764e+01 -1.8658378665631957e+01 -3.6230967106920708e+01 -13 0 1
11308 1775 58 4.0999999999999998e-01 -2.3285810460681407e+01 -2.6998975414838313e+01 -3.3814551488173919e+01 3 -6 0
8827 948 58 4.0999999999999998e-01 -3.2785936884366720e+00 -5.0722390178614383e+00 -3.8047696055222623e+01 11 -12 1
9311 1109 58 4.0999999999999998e-01 -4.9834093917594338e+00 -2.7698036955117118e+01 -3.0130975505001011e+01 0 2 1
6437 151 58 4.0999999999999998e-01 -1.8801953095800471e+01 -1.8485024204363327e+01 -3.5827048410763446e+01 1 3 1
8816 944 58 4.0999999999999998e-01 -2.4144183155822979e+01 -2.4270737039181153e+01 -3.4396066944260006e+01 -7 0 1
8814 944 57 -8.1999999999999995e-01 -2.4472473054022036e+01 -2.3346724254789549e+01 -3.4592097684058267e+01 -7 0 1
13872 2630 57 -8.1999999999999995e-01 -2.0033192867151929e+01 -4.8132682806132721e-01 -3.1096657659633014e+01 -12 -1 0
12996 2338 57 -8.1999999999999995e-01 -2.5157504218006324e+01 -3.4638994310338624e+00 -3.1309448711728496e+01 0 1 0
9913 1310 58 4.0999999999999998e-01 -2.2450413346131914e+01 -2.3860453460329364e+01 -1.9711722700997651e+01 4 -3 1
11696 1904 58 4.0999999999999998e-01 -2.5469862513260978e+01 -2.4276925915359030e+01 -2.9762315560070185e+01 -3 2 0
3461 65 15 2.9999999999999999e-01 -8.1723239444907103e-01 -1.0704233638145729e+01 -2.2936185483338292e+01 0 0 0
12284 2100 58 4.0999999999999998e-01 -1.7693542349288286e+01 -2.7170231002972514e+01 -3.1921239388217206e+01 7 2 0
13569 2529 57 -8.1999999999999995e-01 -2.4927412180088481e+01 -2.4348225988398045e+01 -2.8064298490081789e+01 3 -2 0
11049 1689 57 -8.1999999999999995e-01 -1.7599199662961780e+01 -2.1671025219437215e+01 -2.8562014320372775e+01 1 -4 0
6759 259 57 -8.1999999999999995e-01 -1.4118214282645260e+01 -2.0419738237161980e+01 -2.9197984138721921e+01 -2 2 1
11327 1781 58 4.0999999999999998e-01 -1.3843256020756870e+01 -2.3908822384335998e+01 -2.8313892255509913e+01 -1 -2 0
11051 1689 58 4.0999999999999998e-01 -1.7490639561326343e+01 -2.2519732973852300e+01 -2.8044403719065166e+01 1 -4 0
12833 2283 58 4.0999999999999998e-01 -2.4533039987939446e+01 -2.6954543350761721e+01 -2.7276567507181358e+01 -4 8 0
7316 444 58 4.0999999999999998e-01 -1.5477723754165165e+01 -1.9638208326321582e+01 -3.6083356909674279e+01 -13 0 1
8815 944 58 4.0999999999999998e-01 -2.4413445873267932e+01 -2.2788871400240595e+01 -3.3764243801827398e+01 -7 0 1
13662 2560 57 -8.1999999999999995e-01 -1.2364492706420549e-01 -4.7196954182539237e+00 -2.1992779569875786e+01 0 3 0
6401 139 58 4.0999999999999998e-01 -1.5465462326985236e+01 -2.7412193763100319e+01 -2.7266634656204655e+01 1 0 1
11592 1870 57 -8.1999999999999995e-01 -2.0874529902423937e+01 -8.6075386261164866e-01 -2.5112060352890637e+01 1 -1 0
10401 1473 57 -8.1999999999999995e-01 -1.9991173095950785e+01 -2.7415662629311115e+01 -3.7495174128524305e+01 3 5 0
12361 2126 58 4.0999999999999998e-01 -2.2027314870450134e+01 -2.2683642892228153e+01 -3.7404932033629912e+01 -4 6 0
7091 369 58 4.0999999999999998e-01 -1.2846889983990836e+01 -2.5359907385022357e+01 -3.3862754296973897e+01 11 11 1
5164 96 15 5.0000000000000000e-01 -2.4438484070916800e+01 -5.1702224178454464e-02 -2.3399346301717856e+01 0 0 0
11025 1681 57 -8.1999999999999995e-01 -1.3600616064940770e+01 -2.3440356199347548e+01 -3.3307239432578442e+01 4 3 0
11027 1681 58 4.0999999999999998e-01 -1.3598907487093783e+01 -2.2698389441076557e+01 -3.2636791988021905e+01 4 3 0
11026 1681 58 4.0999999999999998e-01 -1.3386002588255106e+01 -2.3073008816636360e+01 -3.4212240926337579e+01 4 3 0
12283 2100 58 4.0999999999999998e-01 -1.8644773013853410e+01 -2.7509024875820504e+01 -3.3205005225650083e+01 7 2 0
8524 847 58 4.0999999999999998e-01 -2.2903851890503134e+01 -2.5787079192612648e+01 -3.7819123049286851e+01 7 -6 1
7090 369 58 4.0999999999999998e-01 -1.1556758881790474e+01 -2.6075581560344173e+01 -3.3162037540565024e+01 11 11 1
7476 498 57 -8.1999999999999995e-01 -1.0812255439301005e+01 -2.2931045585273701e+01 -3.3137288010063941e+01 -3 3 1
7477 498 58 4.0999999999999998e-01 -1.1728061654345629e+01 -2.3322541024172533e+01 -3.3047671525570202e+01 -3 3 1
4601 86 3 -6.9999999999999996e-01 -3.7641854597438329e-01 -7.9883804455669605e-01 -2.5427116811754033e+01 0 0 0
6579 199 57 -8.1999999999999995e-01 -2.5748536874947622e+01 -1.3385808419145988e+01 -2.2969726169915013e+01 -7 -2 1
13049 2355 58 4.0999999999999998e-01 -1.9141222412007473e+00 -2.7033577194905167e+01 -3.7050538166248863e+01 3 -1 0
6897 305 57 -8.1999999999999995e-01 -1.4478133565859785e+00 -2.7449897158411368e+01 -3.3008873962746804e+01 -7 -5 1
8799 939 57 -8.1999999999999995e-01 -9.3353578573586340e+00 -2.4207952917564867e+01 -3.5356848393943963e+01 2 -7 1
8801 939 58 4.0999999999999998e-01 -8.6172086798072947e+00 -2.3767541167763330e+01 -3.5895653636397853e+01 2 -7 1
12624 2214 57 -8.1999999999999995e-01 -3.1059641869896062e+00 -2.0877607970499380e+01 -3.4618400473110547e+01 -3 0 0
7886 634 58 4.0999999999999998e-01 -1.2096233197195748e+01 -1.9024941180764678e+01 -3.5557159360800625e+01 -9 6 1
7585 534 58 4.0999999999999998e-01 -9.5260105057197144e+00 -2.5454338020618231e+01 -3.3323539792646606e+01 4 4 1
6746 254 58 4.0999999999999998e-01 -8.2031931547547536e+00 -2.5057018463344370e+01 -3.0349469409255583e+01 5 6 1
11720 1912 58 4.0999999999999998e-01 -5.8110197016325493e+00 -2.4509993602881512e+01 -2.9707965177831998e+01 8 2 0
6745 254 58 4.0999999999999998e-01 -9.2161396994548817e+00 -2.3781738321055393e+01 -3.0472816135348516e+01 5 6 1
7826 614 58 4.0999999999999998e-01 -3.0313236860627342e+00 -2.3950356712730713e+01 -3.1448343696868342e+01 6 -1 1
7825 614 58 4.0999999999999998e-01 -4.5172037801610649e+00 -2.4573709616079906e+01 -3.1715194240135599e+01 6 -1 1
9841 1286 58 4.0999999999999998e-01 -1.0588266824546299e+01 -2.5307871190576662e+01 -2.9614276127669292e+01 -4 7 1
7434 484 57 -8.1999999999999995e-01 -4.4470465075075545e+00 -2.1498872889831365e+01 -2.9935412770683627e+01 -8 0 1
7436 484 58 4.0999999999999998e-01 -4.1374852248596632e+00 -2.2375988469956763e+01 -3.0302625486443091e+01 -8 0 1
7902 640 57 -8.1999999999999995e-01 -6.2089144263111571e+00 -2.3000043813886840e+01 -3.3553804494791017e+01 0 -1 1
7904 640 58 4.0999999999999998e-01 -6.5089116522256134e+00 -2.2777673037385426e+01 -3.4481482404740561e+01 0 -1 1
9920 1312 58 4.0999999999999998e-01 -7.7371361792492337e+00 -2.6799279845209046e+01 -3.4511544633236262e+01 -3 -4 1
9918 1312 57 -8.1999999999999995e-01 -7.1409201009731014e+00 -2.6035850831590192e+01 -3.4759951381366342e+01 -3 -4 1
9919 1312 58 4.0999999999999998e-01 -7.4149389428934711e+00 -2.5674613267212088e+01 -3.5651271194881438e+01 -3 -4 1
13165 2394 58 4.0999999999999998e-01 -6.0526137740206956e+00 -2.1106606496191155e+01 -3.0716199324087292e+01 -4 0 0
13164 2394 57 -8.1999999999999995e-01 -6.7308093814726604e+00 -2.1078491250717786e+01 -3.1450557159552879e+01 -4 0 0
13166 2394 58 4.0999999999999998e-01 -6.3083706537901314e+00 -2.1376211643962598e+01 -3.2306674288759915e+01 -4 0 0
7478 498 58 4.0999999999999998e-01 -1.0457177059444717e+01 -2.3118651942460335e+01 -3.4053123703910416e+01 -3 3 1
11272 1763 58 4.0999999999999998e-01 -1.0148608135565988e+01 -2.2219015398282679e+01 -3.1668433901744272e+01 0 0 0
11271 1763 57 -8.1999999999999995e-01 -9.6227621801802705e+00 -2.1777676952022858e+01 -3.0941298248392783e+01 0 0 0
11273 1763 58 4.0999999999999998e-01 -8.7305591919057370e+00 -2.1498923138910342e+01 -3.1296650051087283e+01 0 0 0
8191 736 58 4.0999999999999998e-01 -5.4110461404416590e+00 -2.4778199933846647e+01 -2.7566979860100346e+01 -7 -3 1
7824 614 57 -8.1999999999999995e-01 -3.9847180414744159e+00 -2.3946647214378579e+01 -3.1146631199332951e+01 6 -1 1
11718 1912 57 -8.1999999999999995e-01 -6.4001830383360563e+00 -2.5096375457879361e+01 -3.0263893341174807e+01 8 2 0
11719 1912 58 4.0999999999999998e-01 -5.8982032686909314e+00 -2.5920111585633279e+01 -3.0527481571833608e+01 8 2 0
6744 254 57 -8.1999999999999995e-01 -9.1623933646195646e+00 -2.4776102436267468e+01 -3.0381427264646888e+01 5 6 1
7933 650 58 4.0999999999999998e-01 -3.5216514636031668e+00 -2.0082309526929542e+01 -3.3037390877131955e+01 0 -1 1
7584 534 57 -8.1999999999999995e-01 -1.0176089869100752e+01 -2.5834797401944556e+01 -3.2665767810817911e+01 4 4 1
7586 534 58 4.0999999999999998e-01 -1.0012229358094007e+01 -2.5433873733146211e+01 -3.1764412374940171e+01 4 4 1
10240 1419 58 4.0999999999999998e-01 -2.4485368414429303e+01 -1.8608614610622432e+01 -3.5873059871770494e+01 -2 -2 0
7932 650 57 -8.1999999999999995e-01 -3.3883417672292069e+00 -1.9711285396145247e+01 -3.2118368393461452e+01 0 -1 1
7088 368 58 4.0999999999999998e-01 -1.2082304457232571e+01 -2.0979136850990145e+01 -3.1446934644260359e+01 -1 5 1
7934 650 58 4.0999999999999998e-01 -3.8433487772040884e+00 -2.0300943021781325e+01 -3.1451068070800837e+01 0 -1 1
11989 2002 58 4.0999999999999998e-01 -1.2765299078101092e+01 -1.2533385873734264e+01 -3.7411929331232102e+01 1 -3 0
7086 368 57 -8.1999999999999995e-01 -1.2963306765383475e+01 -2.1226539043304495e+01 -3.1850213944026244e+01 -1 5 1
7087 368 58 4.0999999999999998e-01 -1.3560778184559304e+01 -2.0424776943857967e+01 -3.1864571429563455e+01 -1 5 1
12200 2072 58 4.0999999999999998e-01 -3.8564617884478736e-01 -2.7264187170454193e+01 -2.7204974085889585e+01 -10 -3 0
10060 1359 58 4.0999999999999998e-01 -1.5843236272593904e+01 -2.8217053770008452e+01 -3.8022330642286910e+01 0 2 1
12666 2228 57 -8.1999999999999995e-01 -6.0440431119312343e+00 -2.1459907934414996e+01 -3.6219506390912763e+01 9 -8 0
13746 2588 57 -8.1999999999999995e-01 -1.5547752382346296e+00 -2.3441339136425036e+01 -3.1837701347670418e+01 -5 -5 0
12626 2214 58 4.0999999999999998e-01 -2.3256153483719011e+00 -2.1486900823604131e+01 -3.4759182889325707e+01 -3 0 0
12668 2228 58 4.0999999999999998e-01 -5.2375381382757062e+00 -2.1647922788288369e+01 -3.6780053376847789e+01 9 -8 0
9309 1109 57 -8.1999999999999995e-01 -5.3421498712974937e+00 -2.7526157557127881e+01 -3.1048469102995320e+01 0 2 1
11484 1834 57 -8.1999999999999995e-01 -2.5739922697756075e+01 -1.1201832502928209e+01 -3.1152013654727966e+01 1 -7 0
7903 640 58 4.0999999999999998e-01 -6.2007694279027739e+00 -2.3992879587007689e+01 -3.3434593016158800e+01 0 -1 1
7884 634 57 -8.1999999999999995e-01 -1.2848721484504841e+01 -1.8850960446981759e+01 -3.4921936863504236e+01 -9 6 1
8133 717 57 -8.1999999999999995e-01 -7.5489531390837286e+00 -2.3875902275225329e+01 -3.7275669527298689e+01 4 5 1
12667 2228 58 4.0999999999999998e-01 -6.2361416014771471e+00 -2.0478583311260916e+01 -3.6229542206898856e+01 9 -8 0
12057 2025 57 -8.1999999999999995e-01 -1.1267825661910150e+01 -1.9908755413831305e+01 -3.6774421923575190e+01 -8 0 0
8134 717 58 4.0999999999999998e-01 -6.8665923500491139e+00 -2.3171222655966922e+01 -3.7081215946841553e+01 4 5 1
9842 1286 58 4.0999999999999998e-01 -1.2138229403194032e+01 -2.4839672457058857e+01 -2.9399748255123324e+01 -4 7 1
7832 616 58 4.0999999999999998e-01 -4.7688079922641222e+00 -2.6729443104535875e+01 -3.2550295387911341e+01 1 7 1
10616 1544 58 4.0999999999999998e-01 -1.9482737825315972e+00 -1.8810242729754776e+01 -3.1861513225268485e+01 2 0 0
6898 305 58 4.0999999999999998e-01 -2.0175357509031535e+00 -2.6722810847797991e+01 -3.3391976801922596e+01 -7 -5 1
11743 1920 58 4.0999999999999998e-01 -2.5828147543797133e+01 -8.5418413279477683e+00 -3.1889336173637691e+01 7 2 0
9840 1286 57 -8.1999999999999995e-01 -1.1522523594288606e+01 -2.5625856000679512e+01 -2.9452871549723298e+01 -4 7 1
7831 616 58 4.0999999999999998e-01 -5.4777551795721386e+00 -2.6192401954582436e+01 -3.3920209784312725e+01 1 7 1
7830 616 57 -8.1999999999999995e-01 -4.6033478007008988e+00 -2.6372309496464197e+01 -3.3469594747850749e+01 1 7 1
10289 1435 58 4.0999999999999998e-01 -7.5480769113767892e+00 -1.9215703742662303e+01 -3.1624436498429464e+01 0 -2 0
8800 939 58 4.0999999999999998e-01 -9.9446605600645235e+00 -2.4716567499889031e+01 -3.5965187361350651e+01 2 -7 1
7701 573 57 -8.1999999999999995e-01 -3.2650618941427254e+00 -1.8532885569166719e+01 -3.6174478961159323e+01 -7 0 1
12325 2114 58 4.0999999999999998e-01 -3.6406385724403165e+00 -2.5586576363926248e+01 -3.6750761310804350e+01 -4 -2 0
9691 1236 58 4.0999999999999998e-01 -1.1852816248158927e+01 -2.7848962208331681e+01 -3.4302855780203657e+01 1 5 1
12326 2114 58 4.0999999999999998e-01 -3.7175119857136067e+00 -2.6161872578176052e+01 -3.5224056787884656e+01 -4 -2 0
12324 2114 57 -8.1999999999999995e-01 -3.1799478887494779e+00 -2.6152783694372321e+01 -3.6067246960279306e+01 -4 -2 0
12625 2214 58 4.0999999999999998e-01 -3.9545546532674045e+00 -2.1374797282300158e+01 -3.4799228354621484e+01 -3 0 0
8135 717 58 4.0999999999999998e-01 -7.3766211070833236e+00 -2.4267007508495951e+01 -3.8179754158537307e+01 4 5 1
7702 573 58 4.0999999999999998e-01 -2.9848211700635900e+00 -1.9386991001699855e+01 -3.5736327283589702e+01 -7 0 1
12058 2025 58 4.0999999999999998e-01 -1.1670415290627036e+01 -1.9569905964501125e+01 -3.7624792330105620e+01 -8 0 0
13047 2355 57 -8.1999999999999995e-01 -1.2571672647227281e+00 -2.7288829088551598e+01 -3.7759958026617930e+01 3 -1 0
7788 602 57 -8.1999999999999995e-01 -1.2890354998006870e+01 -2.2073317252009048e+01 -3.5785433526496796e+01 6 3 1
12652 2223 58 4.0999999999999998e-01 -1.2542469200792624e+01 -1.9850384833462165e+01 -2.9556295292360709e+01 2 5 0
12651 2223 57 -8.1999999999999995e-01 -1.1727269836108290e+01 -1.9498340284407643e+01 -3.0016212085377173e+01 2 5 0
12086 2034 58 4.0999999999999998e-01 -3.7904913997868697e+00 -2.3640346252892755e+01 -3.7891046302368721e+01 5 16 0
9597 1205 57 -8.1999999999999995e-01 -2.4576589748954515e+01 -1.9620096445466309e+01 -3.7457464887731618e+01 -10 1 1
12084 2034 57 -8.1999999999999995e-01 -3.3837003290740952e+00 -2.3016509398446530e+01 -3.7223688740287230e+01 5 16 0
7789 602 58 4.0999999999999998e-01 -1.2404435304202860e+01 -2.1216889008561793e+01 -3.5611035670284643e+01 6 3 1
10870 1629 58 4.0999999999999998e-01 -2.5778507076905544e+01 -2.2792330352260070e+01 -2.4141873633760103e+01 0 -1 0
12653 2223 58 4.0999999999999998e-01 -1.1122987241822262e+01 -1.9070952834381849e+01 -2.9343753397710906e+01 2 5 0
8550 856 57 -8.1999999999999995e-01 -1.6844138756484384e-01 -8.5264381582375641e+00 -3.0832380601130151e+01 3 3 1
8955 991 57 -8.1999999999999995e-01 -1.0405200322156789e+01 -2.6762479897449062e+01 -3.7716142249203273e+01 -3 8 1
8957 991 58 4.0999999999999998e-01 -9.8764752370513751e+00 -2.7551972941089435e+01 -3.7404446612877877e+01 -3 8 1
6836 284 58 4.0999999999999998e-01 -8.9227247391322351e-01 -2.2298544125498942e+01 -2.8301324916089655e+01 3 2 1
6834 284 57 -8.1999999999999995e-01 -1.5301508565418587e-01 -2.1812214930091258e+01 -2.8767148366166921e+01 3 2 1
13107 2375 57 -8.1999999999999995e-01 -2.5445722522826237e+01 -2.0506701487838942e+01 -3.0389351231064648e+01 4 3 0
12497 2171 58 4.0999999999999998e-01 -2.5250320538136734e+01 -4.8600289763188762e+00 -3.2220123948870572e+01 -7 -2 0
6888 302 57 -8.1999999999999995e-01 -1.8152377024270187e+01 -1.1841817481631232e+00 -3.2808857941347796e+01 -8 -1 1
12059 2025 58 4.0999999999999998e-01 -1.0417302047688727e+01 -2.0393773327285597e+01 -3.6977815442945889e+01 -8 0 0
7987 668 58 4.0999999999999998e-01 -2.3955449859855108e+01 -3.2631967438825278e+00 -3.7889892649662379e+01 -3 3 1
10203 1407 57 -8.1999999999999995e-01 -9.1757472740083337e+00 -2.1391237519202061e+01 -3.7304276940563483e+01 -2 3 1
12085 2034 58 4.0999999999999998e-01 -2.9253859388961487e+00 -2.2267851910895832e+01 -3.7702717696113304e+01 5 16 0
11032 1683 58 4.0999999999999998e-01 -3.7909735366552901e+00 -1.9675581421999546e+01 -3.8139177536793447e+01 -7 8 0
3788 71 30 1.7000000000000000e+00 -5.1475584144910176e+00 -7.1542621901439789e+00 -2.6478337516599240e+01 0 0 0
6719 245 58 4.0999999999999998e-01 -1.9266041076026898e+01 -1.8266123995615775e+01 -2.9556512681485263e+01 -7 1 1
6717 245 57 -8.1999999999999995e-01 -1.9674156104151518e+01 -1.7901871370502747e+01 -3.0393643485342835e+01 -7 1 1
6718 245 58 4.0999999999999998e-01 -2.0477837454353033e+01 -1.8444942486506385e+01 -3.0636897025837037e+01 -7 1 1
8345 787 58 4.0999999999999998e-01 -2.2614763346479457e+01 -1.8156100529007706e+01 -3.5180950727242163e+01 5 0 1
13184 2400 58 4.0999999999999998e-01 -1.5197813201862113e+01 -1.7045897333860172e+01 -3.2753398623182107e+01 -5 -7 0