ITEM: TIMESTEP
0
ITEM: NUMBER OF ATOMS
21
ITEM: BOX BOUNDS pp pp pp
-25.9593 25.9593
-28.3621 28.3621
-38.1117 38.1117
ITEM: ATOMS id mass x y z vx vy vz fx fy fz 
12690 15.994 -20.0336 -28.1454 -7.96727 -0.00141123 -0.000284552 -0.00247115 -0.919932 3.50809 -1.40868 
12692 1.008 -19.0418 -28.0626 -8.06536 -5.36559e-05 0.0102752 0.0202719 -1.27539 -1.94326 1.27436 
12691 1.008 -20.481 -27.3952 -8.45404 0.0031154 0.016303 0.018938 -1.22567 -1.98568 1.31689 
10497 15.994 -2.8918 -11.0787 21.949 -0.000877346 0.000263162 0.000796687 -4.54844 -0.0395888 -8.99635 
10499 1.008 -3.5008 -11.7094 22.4299 -0.00444221 0.000981528 -0.00277956 4.45181 -5.68136 -2.15883 
10498 1.008 -2.93712 -10.1773 22.3796 -0.0150772 0.00465412 -0.00986153 -0.913576 -3.74666 5.31647 
11366 1.008 -9.82408 22.0803 1.04031 0.00929672 0.0129665 0.000684233 -0.0251436 0.001732 0.447686 
11365 1.008 -10.723 21.6664 2.33963 0.00112006 -0.00243979 -0.00989175 0.225939 0.100588 -0.118887 
11364 15.994 -9.87139 22.0958 2.03908 0.00319134 0.000765587 0.000580291 -0.247279 -0.553769 -0.00675248 
13536 15.994 -6.61589 13.9106 11.9636 0.0008431 -0.000122518 -0.000674398 -15.3619 8.95741 9.20938 
13538 1.008 -7.56487 13.616 11.851 0.00613049 -0.0241639 0.017767 1.53412 0.359771 0.276758 
13537 1.008 -6.20094 13.4154 12.7269 0.0274255 0.012315 -0.00706627 -1.27915 1.0341 -1.79462 
13584 15.994 -22.3291 17.6295 32.0465 0.00417012 0.00332229 -0.00109766 2.76806 3.84856 -5.60225 
13585 1.008 -22.7089 18.0574 31.2264 0.0105558 0.0110624 -1.41337e-05 -1.57121 -0.128587 0.563065 
13586 1.008 -21.3327 17.7136 32.0359 0.0028456 0.0213083 0.0174308 -1.40716 -0.291975 -1.18137 
12727 1.008 22.3462 -6.6672 -17.2304 0.0140379 -0.00429212 0.00338397 0.859645 -1.21801 -0.120689 
12728 1.008 22.5446 -8.15667 -17.8705 0.00852282 0.00343651 -0.0162756 -8.35343 -1.44826 -0.630452 
12726 15.994 22.2442 -7.22117 -18.0567 -0.00391128 0.00286253 0.000812476 4.33294 4.68271 0.750766 
10345 1.008 13.5705 0.0764636 -27.5694 -0.00961601 0.0148885 -0.000257452 -0.882802 2.44202 -1.48359 
10346 1.008 15.1599 0.438742 -27.4683 -0.0121894 0.0219614 0.0147695 -0.0673598 -2.44593 -3.56894 
10344 15.994 14.3544 0.456248 -28.0606 -0.00122802 -0.00331902 -0.000914599 2.08685 2.21081 5.30615 
ITEM: TIMESTEP
1000
ITEM: NUMBER OF ATOMS
21
ITEM: BOX BOUNDS pp pp pp
-26.016 26.016
-28.15 28.15
-38.2984 38.2984
ITEM: ATOMS id mass x y z vx vy vz fx fy fz 
12692 1.008 -18.8387 -26.3324 -8.05166 0.00742193 0.00319379 0.0154419 0.265647 -0.664357 0.116732 
12690 15.994 -19.0004 -27.3183 -8.00975 0.00532345 0.00288343 0.000226704 -2.00387 -0.393377 1.41892 
12691 1.008 -18.1445 -27.7881 -7.7936 0.00686147 -0.00320132 -0.019039 -0.727902 0.835391 -0.232337 
10497 15.994 -3.27099 -11.1324 21.9367 0.000299714 0.00668483 -5.12389e-06 4.19714 -5.48704 2.91778 
10499 1.008 -3.74364 -11.6483 22.6511 -0.00252268 0.0110661 0.00130905 1.22461 -2.85016 -1.08701 
10498 1.008 -2.74227 -10.3928 22.3533 0.0106048 2.91308e-05 -0.00122775 -2.77995 0.442633 1.76756 
11366 1.008 -12.0959 22.4592 1.88711 -0.00277561 0.0125705 0.00419824 0.415068 0.0144282 0.585544 
11365 1.008 -10.8711 23.3241 1.23948 -0.00415482 0.0145453 0.00418508 0.390355 0.00383142 0.543556 
11364 15.994 -11.1861 22.8387 2.05505 0.00235627 0.00238361 -0.000528348 2.90383 -0.788789 -3.09816 
13536 15.994 -9.18284 16.0468 12.0605 -0.00425746 -0.00925329 -4.0509e-07 0.733371 -0.399931 -0.668352 
13538 1.008 -8.85878 16.7178 11.3937 -0.0139831 -0.00793118 -0.00340936 -0.0968795 -0.292801 0.00812918 
13537 1.008 -9.89621 15.4818 11.6459 0.00269475 -0.0205573 0.00341578 0.405684 0.240371 0.0673623 
13584 15.994 -23.4132 17.2246 32.0297 -0.000871103 -0.00115683 5.61844e-05 -3.60369 0.594236 3.28528 
13585 1.008 -23.6631 17.5773 31.1279 -0.0123771 0.0132214 0.00883072 1.09725 -6.08603 -1.43934 
13586 1.008 -22.6571 17.7634 32.401 0.0173095 -0.0199169 -0.0097222 -1.09175 1.50827 -5.22103 
12727 1.008 23.0478 -5.5833 -17.4301 -0.0161813 -0.00105689 0.00962437 -1.80069 -1.38367 1.73261 
12728 1.008 21.928 -6.76474 -17.5633 -0.00888698 -0.0055192 -0.0121756 -2.53835 0.957632 -2.90087 
12726 15.994 22.4482 -6.07251 -18.0634 -0.0113156 0.00522782 0.000160788 -2.39988 0.7909 -5.62918 
10345 1.008 13.438 0.498845 -27.3471 0.00173183 -0.00840385 0.00362933 1.46819 1.54974 1.9737 
10346 1.008 15.0304 0.301283 -27.6521 0.00167977 0.00371597 -0.00455327 1.20994 5.19464 -0.0472957 
10344 15.994 14.1358 0.477002 -28.0631 -0.00174521 -0.00292567 5.82302e-05 -1.17618 -9.813 11.4433 
ITEM: TIMESTEP
2000
ITEM: NUMBER OF ATOMS
21
ITEM: BOX BOUNDS pp pp pp
-25.9611 25.9611
-28.2395 28.2395
-38.2601 38.2601
ITEM: ATOMS id mass x y z vx vy vz fx fy fz 
12690 15.994 -19.2748 -27.3742 -8.00062 -0.00127644 -0.00270316 -0.000131553 -1.80627 -6.48917 1.81358 
12692 1.008 -20.1373 -26.9467 -7.72978 0.00657088 0.00323522 0.0154657 0.464566 -0.991279 -0.151147 
10497 15.994 -3.14729 -10.6195 21.941 0.00447232 0.00430569 -0.00121804 5.1602 2.69907 6.174 
10499 1.008 -3.54434 -11.3736 22.4641 0.03084 0.00393567 0.0183294 -1.40947 -1.51293 -8.33135 
10498 1.008 -3.20973 -9.77493 22.4728 0.0279824 0.00463771 0.000997351 0.412098 -2.42355 1.98943 
12691 1.008 -19.4409 28.1535 -8.26042 -0.0151995 0.00335512 -0.0133784 -0.460595 0.578193 0.488132 
11366 1.008 -10.5395 21.7291 2.2243 0.00271662 -0.010387 -0.0030247 -0.273871 0.00417024 -0.153134 
11365 1.008 -11.5786 20.519 2.57566 -0.00352818 -0.0049164 -0.00270345 -0.144086 0.0514196 -0.0813181 
11364 15.994 -11.387 21.2748 1.94958 -0.00252534 -0.00264339 0.000361009 -1.1142 0.854296 0.0639968 
13536 15.994 -11.8791 15.2869 12.0045 -0.00743991 0.00353255 -0.0004631 0.945988 0.320676 0.0623065 
13538 1.008 -11.6138 16.0701 12.5668 -0.00629414 -0.00146789 0.0059464 0.000948583 -0.332275 0.233749 
13537 1.008 -11.1438 15.0734 11.3613 -0.00556786 0.00439336 0.00140163 0.192918 -0.0953694 0.223252 
13584 15.994 -23.5903 17.3181 32.0458 -7.46115e-05 0.00302606 0.000663331 0.729575 -3.98949 -4.22323 
13585 1.008 -23.7814 17.5576 31.0938 -0.00984265 -0.00879637 -0.000336727 -1.50895 -0.960382 0.465098 
13586 1.008 -22.6019 17.2474 32.1802 0.00106179 -0.00173537 -0.0101884 0.0643249 5.28471 -0.0523344 
10345 1.008 13.4298 -0.509869 -27.5724 0.00284947 -0.0145733 0.00880583 -1.6001 1.96678 -4.46655 
10346 1.008 15.0568 -0.571616 -27.442 0.00327382 -0.0228054 -0.000458574 -2.43111 -1.91445 1.18332 
10344 15.994 14.2819 -0.694456 -28.0621 0.000119618 -0.00245212 -0.000526074 -4.12232 5.14122 -5.12964 
12727 1.008 22.2134 -5.89653 -17.4919 0.0140876 0.00696153 -0.0248081 -0.263785 -3.11239 0.0714763 
12728 1.008 21.1726 -7.15524 -17.4834 0.00662649 0.0134619 0.0244536 1.03666 0.631085 -2.23743 
12726 15.994 21.7026 -6.53768 -18.0646 0.00248046 -0.00597087 2.23379e-05 1.92716 -1.89736 3.84993 
ITEM: TIMESTEP
3000
ITEM: NUMBER OF ATOMS
21
ITEM: BOX BOUNDS pp pp pp
-25.8875 25.8875
-28.2859 28.2859
-38.3581 38.3581
ITEM: ATOMS id mass x y z vx vy vz fx fy fz 
12692 1.008 -17.6837 -27.7372 -7.25936 0.00186107 -0.0232687 0.00566569 -0.762549 -0.50395 -1.3777 
12690 15.994 -18.2826 -27.8985 -8.04377 0.00461552 0.00124562 -0.0014729 -10.8935 5.34409 6.62801 
12691 1.008 -19.0191 -27.222 -8.04618 0.00401521 0.000667475 0.0177049 -0.00249215 -0.233621 -0.279105 
10497 15.994 -3.13424 -11.0017 21.9379 0.00425823 0.00266962 -0.000184728 -2.9161 -3.68316 -0.571314 
10499 1.008 -3.21892 -11.9162 22.3336 0.0103786 0.0102824 0.0187315 -2.23332 1.82691 1.52023 
10498 1.008 -3.26956 -10.3151 22.6522 -0.00747694 0.0166073 -0.0158004 2.26629 0.347913 -2.07231 
11366 1.008 -12.177 23.1191 2.08079 0.00815432 0.00437632 -0.0102991 0.0917778 -0.321659 -0.0128252 
11365 1.008 -11.9148 21.8351 1.10601 0.00615513 -0.00640394 0.00333842 0.000688985 0.0629905 0.211728 
11364 15.994 -11.893 22.1608 2.05125 0.00224244 0.00228001 0.000438688 -0.472823 0.497862 -0.461025 
13536 15.994 -11.3056 15.1733 12.0592 0.00154562 0.00190133 -6.18904e-05 -1.77477 1.44477 1.9529 
13538 1.008 -10.6148 14.654 11.5561 0.00553707 0.00964563 -0.00257409 -0.202484 0.122369 0.360892 
13537 1.008 -11.6123 15.9462 11.5039 -0.00462201 0.00206492 0.00355611 0.0504286 -0.0661197 0.0367626 
13584 15.994 -24.1619 17.3399 32.0407 -0.0022657 0.000109645 -0.00127469 -2.37995 4.76919 4.91608 
13585 1.008 -23.9961 17.3075 31.055 -0.000424618 0.0196825 -0.00160025 3.73148 1.62486 1.8662 
13586 1.008 -24.4556 18.26 32.2997 0.0309267 0.00421984 0.0218258 -1.11111 -4.65625 1.45189 
10345 1.008 13.2956 -1.09288 -27.1474 0.00226953 0.00489753 -0.000623558 1.06525 -1.09326 0.964881 
10344 15.994 13.7396 -1.24751 -28.03 0.00296937 -0.000927291 0.000748793 -14.7132 -5.66912 -1.06721 
10346 1.008 14.1023 -0.382739 -28.3772 -0.00900743 -0.000683956 -0.0112576 5.54203 -2.36333 3.70134 
12727 1.008 22.5612 -6.00062 -17.3378 -0.0101273 0.0158867 -0.00923529 1.77703 -1.34296 -1.25934 
12728 1.008 21.7533 -7.38106 -17.6682 0.00425548 0.00324884 0.0082922 -1.90626 1.65213 0.149791 
12726 15.994 22.2853 -6.6319 -18.0626 0.00429155 -0.00110613 5.94366e-05 0.356265 0.176713 2.64654 
ITEM: TIMESTEP
4000
ITEM: NUMBER OF ATOMS
21
ITEM: BOX BOUNDS pp pp pp
-25.9029 25.9029
-28.2821 28.2821
-38.3168 38.3168
ITEM: ATOMS id mass x y z vx vy vz fx fy fz 
10497 15.994 -3.22011 -11.2984 21.9418 -0.00154001 0.00440349 -0.000293299 8.71173 0.859174 -1.78995 
10499 1.008 -3.57928 -12.1094 22.4035 0.00268765 0.00550842 0.00494106 -1.32564 1.9901 1.5844 
10498 1.008 -3.36136 -10.495 22.5202 0.00507797 0.00556365 -0.000287265 2.76525 1.64271 -1.96836 
12692 1.008 -18.3369 27.5052 -7.19367 0.0130225 -0.0132355 -0.00637861 -0.504508 -0.314111 -0.338169 
12690 15.994 -18.8538 27.5467 -8.04868 0.00380161 -0.00527966 -0.000424805 1.83771 2.77265 -2.72211 
12691 1.008 -19.5792 26.8585 -8.03387 -0.0145075 0.0143116 0.013119 1.84514 1.52122 0.216669 
11366 1.008 -10.4944 22.5743 2.62729 0.00808856 -0.00526869 -0.000729717 -0.021816 -0.0300679 -0.0550153 
11365 1.008 -10.6222 23.3099 1.17466 0.0105773 -0.00751758 -0.00210072 0.0341615 -0.0101734 -0.0282596 
11364 15.994 -10.0801 23.2454 2.01248 0.00747582 -0.00405323 0.000178384 -2.25469 1.60069 0.279229 
13536 15.994 -11.4401 15.6417 12.0172 0.00449569 0.00343148 -0.00085761 1.04365 -1.7447 -1.13428 
13538 1.008 -12.119 16.2578 12.4167 0.000186714 -0.00207007 0.000306954 0.241415 -0.155307 -0.00618381 
13537 1.008 -10.9247 16.1261 11.3103 0.0140015 0.0139861 0.0133008 -0.389147 -0.502262 0.699517 
13584 15.994 -23.2523 18.2418 32.0314 0.00256329 0.00192962 8.78463e-06 1.93471 -5.39312 9.19636 
13585 1.008 -23.9684 18.1157 31.3449 -0.000531962 0.0108623 0.00158675 5.04756 -0.425886 -4.21338 
13586 1.008 -23.079 19.2186 32.1575 0.0163529 -0.000290055 -0.00172614 0.171217 -0.814222 0.396715 
10346 1.008 14.3614 -0.107119 -28.3068 0.00634402 -0.00421066 0.00520437 -0.515224 1.68749 2.92581 
10345 1.008 13.2212 -0.214692 -27.1424 0.0100364 -0.0100155 0.00828676 -3.00839 -4.41692 -0.201123 
10344 15.994 13.5122 -0.559703 -28.0347 -0.000401718 0.0048072 -0.00085026 1.67725 -2.95911 4.67111 
12727 1.008 22.7337 -6.14151 -17.3154 -0.0094672 0.00103346 0.00753342 -1.05947 3.33653 -0.76621 
12728 1.008 21.3692 -6.95682 -17.6907 0.00562569 -0.0157473 -0.010834 2.1477 -0.444923 1.22901 
12726 15.994 22.1391 -6.43833 -18.0626 -4.21041e-05 0.000585285 0.000208015 -0.642237 1.44113 2.75129 
ITEM: TIMESTEP
5000
ITEM: NUMBER OF ATOMS
21
ITEM: BOX BOUNDS pp pp pp
-25.9728 25.9728
-28.2158 28.2158
-38.2783 38.2783
ITEM: ATOMS id mass x y z vx vy vz fx fy fz 
12691 1.008 -18.2169 -27.4714 -7.23832 0.0156016 -0.00395345 -0.00528084 -0.148381 -0.206928 -0.313948 
12690 15.994 -18.6631 -27.9511 -7.9939 0.00265983 -0.00120651 0.000618315 -0.520346 2.66708 0.773834 
12692 1.008 -18.242 -27.6768 -8.85846 -0.00384876 -0.00745044 -0.00453001 -0.0740341 -0.0805683 0.250661 
10497 15.994 -3.07276 -11.1689 21.9474 -0.00417399 0.00122843 6.36212e-05 -4.83435 -1.22846 0.846767 
10499 1.008 -3.73136 -11.8152 22.3328 0.00537148 -0.00716727 0.00229302 1.011 -2.14416 -2.20804 
10498 1.008 -3.0575 -10.3371 22.5022 -0.0170746 0.00370559 -0.0033025 -3.82177 -1.41688 1.35674 
11366 1.008 -11.9985 22.5519 2.66482 -0.00686654 -0.00316102 -0.00546931 -0.0173746 0.0180029 -0.675343 
11365 1.008 -10.6396 21.7066 2.33883 -0.00659879 -0.00727961 0.00629573 -0.190575 0.137369 -0.559457 
11364 15.994 -11.4045 22.2097 1.93675 0.00209277 0.000868442 -5.2084e-05 1.6657 0.47178 -2.61289 
13536 15.994 -10.0594 15.9487 12.0204 0.00275283 -0.00520822 0.00093265 -0.258438 -3.55994 -1.09638 
13538 1.008 -9.083 15.7701 12.1415 0.00336545 -0.00554336 -0.00447418 -0.117088 -0.0829711 0.362453 
13537 1.008 -10.4811 15.183 11.5348 0.00276617 0.00191809 -0.0103242 -0.0114354 0.0941515 0.305883 
13584 15.994 -22.4656 18.2107 32.0339 -0.00409164 0.00718575 0.00131723 5.59112 4.79139 12.6043 
13585 1.008 -23.2662 18.7231 31.7232 -0.00348102 0.00891465 0.00256327 -0.469391 -8.48567 -11.4649 
13586 1.008 -21.6336 18.6803 31.7387 -0.00364201 -0.00918063 -0.0234638 -1.86617 -0.0841593 1.12916 
12727 1.008 23.451 -5.63213 -17.381 0.000588279 0.00189166 -0.00906174 3.31795 -5.01847 -0.96246 
12728 1.008 22.1902 -6.64167 -17.6238 0.0034424 -0.0057062 0.00763771 0.214574 -0.554138 0.0199243 
12726 15.994 22.8177 -5.99853 -18.0627 -0.00876575 0.00105802 8.97473e-05 -5.32498 -8.5623 10.0729 
10345 1.008 13.6695 1.0678 -27.5254 0.00998279 -0.00315285 0.00855549 -0.172175 5.34543 3.73207 
10344 15.994 14.3778 1.55066 -28.0403 0.000902428 0.0010366 -8.82981e-06 4.49696 -7.46826 -4.34923 
10346 1.008 15.271 1.15013 -27.8356 0.0061169 0.00834246 -0.00841539 -0.456469 1.27014 4.56678 
ITEM: TIMESTEP
6000
ITEM: NUMBER OF ATOMS
21
ITEM: BOX BOUNDS pp pp pp
-25.898 25.898
-28.3307 28.3307
-38.2679 38.2679
ITEM: ATOMS id mass x y z vx vy vz fx fy fz 
12692 1.008 -18.0797 -27.2789 -7.90066 0.00709195 0.00168876 0.00553283 0.0523403 0.0337668 -0.0447323 
12690 15.994 -17.9591 -28.2704 -7.94913 0.0050229 0.00170845 -0.000199759 -1.92484 1.65289 -1.11669 
10497 15.994 -3.40031 -11.2386 21.944 0.000254504 0.00188879 -0.000618498 -3.51871 -7.22715 11.6469 
10499 1.008 -3.98567 -11.9087 22.4004 0.0206898 -0.00635535 0.0135126 -0.976635 1.55019 -0.906793 
10498 1.008 -3.36486 -10.4006 22.4885 -0.00195882 0.0039897 -0.00369888 -0.716504 -0.0789793 0.10342 
12691 1.008 -17.8965 28.1087 -8.90643 -0.0133896 0.00496683 -0.00236324 0.0167626 0.319645 0.767094 
11366 1.008 -12.2372 21.5403 1.60765 0.000757116 -0.00264422 -0.00490932 -0.308838 0.280102 -0.0109564 
11365 1.008 -10.8373 22.1809 2.15316 0.00146557 0.00349781 -0.0139623 -0.611415 0.479224 0.00114431 
11364 15.994 -11.8133 22.3492 2.01507 -0.00200836 -0.00426158 0.00118936 0.580249 -0.990283 0.457809 
13536 15.994 -9.33053 16.4024 12.0329 0.00609858 0.00337659 -0.000291591 2.854 0.279736 -3.18936 
13538 1.008 -8.88423 16.3659 11.1388 -0.00687708 0.0130448 -0.00715845 0.00949205 0.457143 0.528701 
13537 1.008 -9.38883 17.3528 12.3384 0.0124268 -0.000108438 0.0117852 0.390993 -0.400451 -0.422603 
13584 15.994 -22.5173 18.8046 32.0174 0.00484117 -0.00256092 -0.000896456 -10.5098 0.546995 -1.44705 
13585 1.008 -22.9586 19.4339 31.3777 0.00454618 0.0103397 0.0119918 0.0237606 -0.923581 -0.254626 
13586 1.008 -21.6625 19.2069 32.3454 0.00794686 -0.0117269 0.00223233 1.39694 -1.9343 -3.81091 
12727 1.008 23.3604 -6.31911 -17.3853 0.0190398 -0.0169037 5.76325e-05 -2.87054 -2.60547 2.54161 
12728 1.008 22.0267 -7.22809 -17.6354 0.00227335 0.00607603 0.0058556 1.08531 -4.62386 -3.07343 
12726 15.994 22.8473 -6.8475 -18.0617 0.00158369 0.0006002 -0.000372674 2.94605 6.13205 1.07781 
10345 1.008 13.1507 1.02326 -27.4148 0.0111809 -0.0124362 0.0057537 0.32792 3.58954 1.88151 
10344 15.994 13.7628 1.5163 -28.033 -0.000160066 -0.00405594 0.00120348 1.22555 0.793564 -5.26394 
10346 1.008 14.6501 1.05598 -28.0614 -0.00216695 -0.00631735 -0.0248494 -1.90606 -0.241802 0.802358 
ITEM: TIMESTEP
7000
ITEM: NUMBER OF ATOMS
21
ITEM: BOX BOUNDS pp pp pp
-25.9709 25.9709
-28.2169 28.2169
-38.2733 38.2733
ITEM: ATOMS id mass x y z vx vy vz fx fy fz 
12690 15.994 -18.6658 -28.0148 -8.06361 -0.00317432 -0.000116769 -0.000286942 -0.75834 1.05399 0.697147 
12692 1.008 -18.3395 -27.1872 -7.60687 0.00852493 -0.00944128 0.00825688 0.0271143 -0.16506 -1.15632 
10497 15.994 -3.04497 -11.1854 21.9468 -0.00150977 -0.00122067 0.000142071 -0.123528 -0.744172 7.42339 
10499 1.008 -3.46362 -11.9341 22.4608 -0.00418936 0.00745668 0.0106183 0.288089 -1.23015 -1.91749 
10498 1.008 -3.27078 -10.3142 22.3826 0.000390124 0.00579192 -0.0128726 -0.852561 -1.75269 2.20978 
12691 1.008 -19.0388 27.7875 -7.38381 0.0135806 -0.0136932 -0.00370394 0.165231 0.0127207 -1.57936 
11366 1.008 -10.8241 21.2441 1.49901 -0.0107632 0.00873258 -0.023848 -1.85752 -0.778197 0.997725 
11365 1.008 -11.9206 22.1994 2.24239 -0.00468124 -0.00276932 -8.73537e-05 -0.558265 -0.546702 0.238229 
11364 15.994 -11.6798 21.2555 2.0163 0.00443318 -0.000825414 0.0015085 1.66805 -0.437945 -4.25657 
13536 15.994 -8.67266 17.6725 12.0537 -0.00154716 -0.000905469 -0.000391743 -1.416 1.42193 -1.63051 
13538 1.008 -9.39389 18.1897 11.5929 -0.0136027 -0.00822445 0.0102589 0.403462 -0.593253 -0.00647916 
13537 1.008 -8.50067 16.8228 11.5553 0.00108775 0.00176726 -0.00404312 -0.0350169 0.0333587 0.144824 
13584 15.994 -22.6753 18.8039 32.0184 0.00659968 0.0054688 0.000923261 -8.35755 3.27821 5.99863 
13585 1.008 -23.0141 19.3241 31.2344 0.0388135 -0.0100275 -0.0232063 4.00368 -7.10077 -0.702193 
13586 1.008 -21.9493 19.32 32.4729 0.00194287 0.0053257 0.00855683 3.33783 -0.719964 -5.17889 
12727 1.008 22.4489 -6.13231 -17.2735 -0.00332365 0.00182883 -0.00480227 3.13139 -3.3866 1.43819 
12728 1.008 21.7889 -7.54962 -17.746 0.0206318 -0.0133066 0.00707719 0.743728 -0.155077 -0.101063 
12726 15.994 22.2095 -6.6991 -18.0618 0.00410908 -0.00781623 -0.000143374 2.56767 -8.48887 12.8827 
10345 1.008 13.8688 0.755258 -27.4115 -0.00514667 0.0115655 0.000117101 -1.38975 4.30295 -0.558833 
10344 15.994 14.5657 1.07931 -28.0513 -0.000796246 0.00153903 -0.000210257 9.91147 2.92449 0.0523241 
10346 1.008 15.4609 0.729784 -27.7749 -0.0047207 -0.00580163 0.00321906 -0.322643 3.28457 6.26693 
ITEM: TIMESTEP
8000
ITEM: NUMBER OF ATOMS
21
ITEM: BOX BOUNDS pp pp pp
-26.0162 26.0162
-28.1512 28.1512
-38.1773 38.1773
ITEM: ATOMS id mass x y z vx vy vz fx fy fz 
12692 1.008 -18.755 -27.2694 -7.1046 -0.0179942 -0.0201141 0.00827853 0.902592 -2.12507 -1.05808 
12691 1.008 -19.4193 -27.086 -8.58538 -0.0152947 -0.0101298 0.00831829 0.700525 -1.67387 -0.737748 
12690 15.994 -18.8328 -27.6654 -8.01954 0.0014091 -0.00235569 -0.00104599 0.29922 3.1043 1.01303 
10497 15.994 -3.52157 -11.1905 21.9413 0.00120985 -0.00343744 -0.000207208 16.2528 16.1722 -9.09057 
10499 1.008 -4.24436 -11.803 22.2615 -0.00152359 0.00330136 0.00651473 2.02878 -1.02461 -2.95667 
10498 1.008 -3.27992 -10.5497 22.67 0.0123701 -0.00420955 -0.00322695 -2.02174 0.244745 0.673028 
11366 1.008 -13.4722 21.4791 2.37907 0.0231864 0.00604319 -0.00250845 0.462165 -1.46491 -0.801772 
11365 1.008 -12.9908 19.9392 2.63322 -0.00635864 -0.00250489 0.001617 0.0269137 0.0118304 -0.156976 
11364 15.994 -13.2184 20.6192 1.9362 -0.00330578 -0.0030915 5.61821e-05 -1.12954 2.45226 0.886313 
13536 15.994 -9.16057 15.4282 11.9525 -0.0033537 0.00370085 -0.000591341 -1.20331 -2.90153 2.22699 
13538 1.008 -9.7572 14.9206 12.5741 0.00953992 0.00923292 0.0162937 0.317974 0.586836 -0.721398 
13537 1.008 -8.20492 15.2406 12.1795 0.00137344 0.0201794 -0.00691088 -0.681227 0.326689 -0.434591 
13584 15.994 -22.136 18.2821 32.0256 6.40758e-06 0.00487859 0.00115967 -10.4904 6.07452 0.534092 
13585 1.008 -21.6167 19.0565 32.3869 -0.0129842 0.0163118 -0.00467541 -0.164427 -0.965618 -0.0139821 
13586 1.008 -22.634 18.5671 31.2066 0.0128661 -0.0155157 -0.0137252 4.30532 0.115184 -0.713803 
12727 1.008 23.5074 -6.36059 -17.3715 0.00667295 -0.00623897 0.00207706 1.65218 -2.29061 0.286467 
12728 1.008 22.4466 -7.57748 -17.6194 -0.00016244 0.00107979 -0.00450798 -0.809595 0.268458 -0.338652 
12726 15.994 22.9949 -6.86889 -18.0636 -0.00310261 0.00626832 0.000153205 -0.10116 1.28197 10.5424 
10344 15.994 14.6798 1.15744 -28.048 0.00195596 -0.000994253 0.000208413 -0.0579777 -4.63305 5.14245 
10346 1.008 15.5205 1.08536 -27.5113 0.00535125 0.000544442 -0.00492906 2.7191 -1.9043 -4.34498 
10345 1.008 14.0199 0.477873 -27.7275 0.00659398 -0.00481622 0.00162216 2.70318 -3.03901 -0.218522 
ITEM: TIMESTEP
9000
ITEM: NUMBER OF ATOMS
21
ITEM: BOX BOUNDS pp pp pp
-25.8914 25.8914
-28.299 28.299
-38.2127 38.2127
ITEM: ATOMS id mass x y z vx vy vz fx fy fz 
12692 1.008 -18.7049 -26.9805 -7.99041 -0.0105768 0.00313872 0.0117306 -0.32792 -0.682644 0.0024847 
12690 15.994 -18.7824 -27.9769 -8.02358 -0.00106026 0.00282879 -0.00108503 6.40733 -1.81139 -4.34483 
10497 15.994 -2.66649 -11.6715 21.9466 0.000227865 -0.000918985 0.00149274 -0.183899 3.50084 7.0704 
10499 1.008 -3.24407 -12.4115 22.2913 -0.0127748 -0.00625322 -0.031783 3.1088 0.67085 -2.48571 
10498 1.008 -2.73691 -10.8817 22.5559 -0.0269791 -0.00845516 0.00809772 -2.992 -0.0778593 -2.83867 
12691 1.008 -17.9581 28.209 -7.63543 -0.00269529 0.0057455 0.00548573 -0.0428402 -0.317012 0.121625 
11366 1.008 -10.6869 22.3264 1.22971 0.00195321 -0.00336397 -0.00232737 -0.728064 -0.4561 0.141519 
11365 1.008 -10.9217 23.1216 2.63686 0.0303817 -0.0107009 0.00657226 -1.44 -1.63783 -0.920528 
11364 15.994 -11.3032 22.4438 2.00841 0.00688153 0.00886126 -0.000267528 1.21765 -0.0517276 2.52996 
13536 15.994 -11.2835 15.7378 12.0291 0.000367962 -0.00144013 -0.000182263 -1.1823 5.52996 0.931413 
13538 1.008 -11.4087 15.9638 11.063 -0.00112175 -0.00652017 -0.0011818 -0.288132 -0.0912026 0.0557036 
13537 1.008 -12.1759 15.6769 12.476 0.00156969 0.0121311 0.00407377 0.35096 -0.10317 -0.252006 
13584 15.994 -23.7908 18.3227 32.0112 -0.00232667 0.000735805 3.38321e-05 -3.3614 -7.4269 -9.52777 
13586 1.008 -23.3173 18.0753 31.1659 -0.00387681 0.0135311 -0.00457097 1.7811 4.37039 -0.363672 
13585 1.008 -23.1375 18.72 32.6557 -0.0015622 -0.00699695 0.00403416 -2.98141 1.8484 0.491193 
12727 1.008 23.4091 -6.52648 -17.3358 0.00804753 0.0084582 -0.00705024 -4.36752 5.38099 1.90197 
12728 1.008 22.009 -7.26967 -17.7295 0.0215704 -0.023336 0.00493603 -0.0210632 2.55867 -0.0325683 
12726 15.994 22.7319 -6.66221 -18.0589 0.00279518 -0.00357901 0.000133246 -2.22267 -6.9156 -3.34369 
10345 1.008 14.8586 0.748707 -27.596 -0.00391626 -0.0122528 -0.0207872 2.35128 -3.60641 -2.11393 
10344 15.994 15.605 1.24691 -28.0372 0.000977727 2.84212e-06 0.00136142 -11.782 -3.30676 1.99306 
10346 1.008 16.4762 0.809709 -27.8137 -0.00147096 -0.00600624 -0.000814503 1.60554 4.44103 -0.450783 
ITEM: TIMESTEP
10000
ITEM: NUMBER OF ATOMS
21
ITEM: BOX BOUNDS pp pp pp
-25.9901 25.9901
-28.2085 28.2085
-38.3377 38.3377
ITEM: ATOMS id mass x y z vx vy vz fx fy fz 
10497 15.994 -3.24787 -10.9329 21.9435 -0.001344 0.00155378 -0.000108674 9.52473 2.67118 2.38828 
10499 1.008 -3.70547 -11.7463 22.3026 0.0170658 -0.0152572 -0.0147145 -2.06935 2.68499 -3.15881 
10498 1.008 -3.34579 -10.1801 22.5944 -0.0126751 -0.0142382 0.0164388 0.283511 -1.15588 -0.778083 
12690 15.994 -17.7674 27.1622 -8.03526 -0.00843755 -0.00162527 -0.00189947 0.201776 -1.63164 -1.45677 
12691 1.008 -18.5615 27.6184 -7.63374 -0.00179748 -0.00441135 0.014398 1.13697 0.918815 -0.934962 
12692 1.008 -17.7908 26.1889 -7.80684 0.010507 0.00206591 0.015741 1.2427 1.32432 -1.0986 
11366 1.008 -9.80625 24.472 1.16006 -0.0191673 0.00340303 -0.00767159 -0.117858 0.933653 0.589538 
11365 1.008 -10.4005 24.2095 2.65858 -0.00994257 -0.00310588 -0.00516753 -0.0377607 0.518908 0.333712 
11364 15.994 -10.0968 24.9087 2.01143 -0.0013699 -0.00130473 0.000809168 -0.223794 -2.60448 0.399102 
13536 15.994 -9.89821 15.5087 11.9589 -0.00670057 -0.00264771 -0.000378988 -2.07517 4.2805 1.95623 
13538 1.008 -9.87988 15.0264 12.8347 -0.00511828 -0.0125248 -0.00586085 -0.12495 0.368804 -0.17999 
13537 1.008 -10.8032 15.9101 11.8178 -0.00293249 0.0101525 0.0118743 0.346976 -0.429678 0.671803 
13584 15.994 -22.2006 18.1275 31.9986 -0.0045725 0.00289061 -8.19796e-05 1.68209 0.789213 0.909133 
13586 1.008 -22.3324 18.8026 31.2728 -0.00320837 -0.000395299 -0.00337375 1.0166 -1.70486 -1.66105 
13585 1.008 -21.6855 18.5409 32.7495 -0.017365 0.0101631 0.00467453 -1.3119 1.70924 -0.651804 
12727 1.008 21.3705 -6.94142 -17.5245 0.00240057 -0.00743879 0.00744896 0.203156 2.32463 -1.97928 
12728 1.008 20.0918 -7.95752 -17.5222 0.0073641 -0.0137275 -0.0130778 3.83285 -1.08548 -0.203828 
12726 15.994 20.5986 -7.28383 -18.0601 0.00435492 -0.000754911 0.000354748 1.5298 7.26327 -2.95314 
10345 1.008 14.0392 0.445191 -27.6214 0.00796167 -0.00136761 0.0090273 0.856676 -3.02347 -2.65702 
10344 15.994 14.8722 0.82753 -28.0214 0.00321338 -0.000164929 0.000287357 3.04654 4.42562 -4.37437 
10346 1.008 15.5858 0.127271 -28.0391 0.00189311 -0.00114005 -0.0135868 0.388999 1.26011 -4.48212 
ITEM: TIMESTEP
11000
ITEM: NUMBER OF ATOMS
21
ITEM: BOX BOUNDS pp pp pp
-26.0162 26.0162
-28.2583 28.2583
-38.2234 38.2234
ITEM: ATOMS id mass x y z vx vy vz fx fy fz 
12690 15.994 -18.9573 -27.6406 -8.0633 0.00179211 -0.00948371 -0.000514895 7.25622 -2.78683 0.0987016 
12692 1.008 -18.673 -26.8567 -7.51134 -0.0339528 0.00385544 -0.00106187 -1.13262 -1.87299 -3.12234 
10497 15.994 -3.14507 -10.9256 21.9455 0.00521492 -0.0047552 -8.39838e-05 6.8887 -20.3388 -13.9053 
10499 1.008 -3.87612 -11.5945 22.0799 0.00293349 -0.000243212 0.00997589 2.93137 -3.31462 0.307821 
10498 1.008 -3.01687 -10.3979 22.7852 0.0057277 0.00870462 -0.00864331 -6.53675 5.68019 -4.93199 
12691 1.008 -19.0125 28.0624 -7.48429 -0.00521855 -0.00207653 0.00923174 -0.483027 -0.523184 -1.4007 
11366 1.008 -10.2716 23.281 2.43434 0.0054353 -0.0107657 0.0148164 0.352342 -0.64074 -0.324949 
11365 1.008 -9.59666 21.9249 1.82356 0.00855845 0.00488693 -0.0164943 -0.496574 0.845971 0.308383 
11364 15.994 -10.4575 22.4079 1.98375 0.00694265 -0.00349857 0.000105748 -0.675922 0.141795 0.49067 
13536 15.994 -9.28893 17.2054 12.0548 -0.00139897 0.00013325 -0.000142078 3.29769 -0.270094 -5.16237 
13538 1.008 -8.89872 17.2285 11.1344 -0.0010732 0.0236323 0.000579239 0.736829 -0.0509649 1.34589 
13537 1.008 -10.2856 17.262 11.9963 -0.000565252 0.0166648 0.00167513 0.784254 -0.0113142 1.28103 
13584 15.994 -21.8735 17.8986 32.0165 0.00608179 -0.00014455 -0.000456726 2.43109 -3.07748 -2.37623 
13586 1.008 -22.4616 18.2673 31.2967 0.00238825 0.00548157 0.00543882 0.171588 0.174699 0.292577 
13585 1.008 -21.3587 18.6433 32.4412 0.00928364 -0.00364444 0.00180808 -3.61595 0.155188 3.64312 
12727 1.008 23.1645 -6.34387 -17.5283 0.000859037 -0.00663353 0.00180202 -3.25399 3.32623 3.75265 
12728 1.008 21.7731 -7.19892 -17.5494 0.00168007 -0.00779525 -0.00515119 -2.75639 2.73526 0.665116 
12726 15.994 22.3427 -6.5534 -18.0581 0.000925928 -0.00289252 0.000211077 1.82416 -7.06439 1.60714 
10345 1.008 13.0803 1.12586 -27.5859 0.0032785 -0.0335207 0.00802137 2.7459 -2.56441 -0.175785 
10346 1.008 14.5883 0.507703 -27.693 0.0208237 0.0127707 -0.0119056 -1.84498 -1.3587 -7.64585 
10344 15.994 13.9649 1.20562 -28.0454 -0.00355016 -0.00286932 0.0002448 -3.73353 9.33384 1.96203 
ITEM: TIMESTEP
12000
ITEM: NUMBER OF ATOMS
21
ITEM: BOX BOUNDS pp pp pp
-25.939 25.939
-28.3103 28.3103
-38.3916 38.3916
ITEM: ATOMS id mass x y z vx vy vz fx fy fz 
12690 15.994 -18.6315 -27.7698 -7.9554 -0.000662355 0.0119857 0.00176045 -3.69304 2.48081 -8.65985 
12691 1.008 -19.5536 -28.1461 -7.86564 0.0036773 -0.00276245 -0.0153151 1.70733 -0.538403 2.28634 
12692 1.008 -18.5408 -27.3164 -8.84207 0.0207557 -0.0204238 -0.012618 2.08418 -1.07948 3.72427 
10497 15.994 -2.82315 -11.1116 21.9356 0.00408925 -0.000160271 -7.12399e-05 6.51094 4.31746 -2.58784 
10499 1.008 -2.93739 -11.8742 22.5724 0.0237733 -0.00830979 -0.00629246 -1.96528 -1.1095 -4.11122 
10498 1.008 -2.72546 -10.2594 22.4495 0.00363195 -0.00463168 0.00742283 -2.68825 -1.39577 2.82959 
11366 1.008 -11.4491 22.1952 2.93855 0.00175036 -0.0124689 -0.00425135 -0.0390061 0.0143701 -0.961993 
11365 1.008 -12.1085 23.1515 1.79045 -0.0135719 0.00422038 0.0184452 0.592312 -0.899516 0.0716297 
11364 15.994 -11.5561 22.3342 1.95406 -0.00468006 0.00635126 -0.000894546 -0.171204 0.538269 0.526082 
13536 15.994 -9.49919 15.7771 11.9621 0.00126546 0.00232698 0.000137698 5.48736 1.90051 -0.953251 
13538 1.008 -8.89331 16.1225 12.6787 0.00727159 -0.00449938 -0.00164442 0.251865 -0.104981 -0.160699 
13537 1.008 -9.43576 14.7799 11.9233 -0.00953399 0.00166342 -0.000540451 0.212678 0.392549 0.00828851 
13584 15.994 -22.6084 18.0486 32.0092 -0.00180295 -0.000756855 -0.00054334 -0.704753 2.68452 -1.50774 
13586 1.008 -22.6765 18.531 31.1359 -0.0267117 0.00426478 0.00415937 1.97339 -2.32764 0.211512 
13585 1.008 -22.3 18.6831 32.7179 -0.0290455 0.00690394 0.00446183 -0.101943 -3.99327 0.846276 
12727 1.008 22.5566 -6.83508 -17.2132 -0.0133592 -0.00625351 0.00230966 -0.881987 -2.28394 1.57182 
12728 1.008 22.7365 -8.31354 -17.8836 0.000103516 -0.00362596 0.000103103 -4.68185 -1.25273 -1.02524 
12726 15.994 22.4714 -7.36502 -18.0569 -0.0017686 -0.00418966 -0.000152061 6.03645 5.88843 3.03227 
10345 1.008 13.361 1.40902 -27.6176 0.000313132 0.00968791 0.000656142 -0.687226 1.63029 -0.828455 
10346 1.008 14.8689 1.01482 -28.1059 -0.00184834 -0.00381555 0.00485218 -1.17346 -1.23207 0.993719 
10344 15.994 14.2078 1.75987 -28.0174 0.00329229 0.00136708 -0.000347155 3.29695 -2.33481 -0.232155 
ITEM: TIMESTEP
13000
ITEM: NUMBER OF ATOMS
21
ITEM: BOX BOUNDS pp pp pp
-26.0048 26.0048
-28.2726 28.2726
-38.2224 38.2224
ITEM: ATOMS id mass x y z vx vy vz fx fy fz 
12692 1.008 -19.5712 -27.9596 -8.23083 0.00766994 -0.0103398 -0.00014833 0.217568 -0.147474 0.526989 
12690 15.994 -18.6444 -27.6404 -8.03319 0.00312859 0.00304229 -0.000462023 -3.88409 -1.59091 2.93151 
10497 15.994 -2.16259 -11.1949 21.9507 0.00337322 -0.00203453 0.00138197 -14.4427 -1.02253 7.50106 
10499 1.008 -2.58708 -11.9475 22.4541 0.0061455 -0.0139216 -0.0140574 1.85528 -0.094577 0.903705 