ITEM: TIMESTEP
0
ITEM: NUMBER OF ATOMS
21
ITEM: BOX BOUNDS pp pp pp
-25.9591 25.9591
-28.1229 28.1229
-38.3294 38.3294
ITEM: ATOMS id mass x y z vx vy vz fx fy fz 
12691 1.008 -14.4641 -25.7295 -11.837 0.00399133 -0.00492595 0.011909 -0.415816 -0.267826 -0.0936007 
12690 15.994 -15.1085 -26.4803 -11.9822 -0.00251979 0.00307975 -0.000605154 1.57559 2.0572 -1.17136 
12692 1.008 -15.9246 -26.1348 -12.4455 0.00402457 0.0162684 -0.00230703 0.450599 -0.089777 0.284833 
11366 1.008 -17.8524 16.7121 -2.01442 0.00803816 0.00770063 -0.00824799 -0.0610514 0.124682 -0.00358511 
11365 1.008 -18.5862 17.9028 -2.85779 -0.0169455 0.00206838 0.00553875 0.366604 -0.401434 1.29533 
11364 15.994 -18.319 17.5938 -1.94503 0.0057393 0.0058222 0.000170746 -3.04876 -2.65387 1.07833 
13538 1.008 -20.674 5.78918 7.75819 -0.00171918 -0.000107051 0.00227501 0.58636 0.240287 -0.072381 
13536 15.994 -19.915 5.17982 7.9875 -0.00189991 -0.00145141 -0.000687704 6.5382 0.502728 -2.51963 
13537 1.008 -20.269 4.36142 8.44017 -0.000746789 0.00320727 0.00863682 0.580478 0.29976 -0.1258 
13585 1.008 -14.9374 12.5366 27.5586 0.0136931 -0.00965438 0.0242203 2.03176 0.70808 5.23737 
13584 15.994 -15.181 13.3828 28.0324 -0.00766102 -0.000842995 -0.00257019 8.44254 -2.66464 -5.39446 
13586 1.008 -14.4424 14.0488 27.9272 -0.00384993 -0.00205819 0.0165611 -2.15197 1.9489 2.9902 
10344 15.994 5.34811 -1.4815 -32.0314 0.000853188 -0.00391813 -0.000919731 -7.79753 -6.96877 13.4831 
10346 1.008 5.37473 -1.14205 -31.0912 0.0172495 -0.00933346 0.000569183 0.617956 1.63304 -0.698394 
10345 1.008 4.43264 -1.34482 -32.4099 -0.00426981 0.00316394 0.0140242 4.68275 14.8558 -4.1602 
12726 15.994 22.7732 -3.95839 -22.0178 -0.00144903 -0.00263595 -0.000679142 -7.12497 12.4225 2.01391 
12728 1.008 23.7131 -4.2062 -21.7833 0.00402691 0.0145269 -0.00438409 -2.14149 -5.22074 -2.9346 
12727 1.008 22.6581 -2.96855 -21.9342 -0.0235044 -0.00648727 0.0151601 7.94503 0.222313 -3.47147 
10498 1.008 3.62288 -13.8162 17.8528 -0.0122678 -0.000601563 0.00566312 1.39674 -0.361623 0.00197207 
10497 15.994 3.30164 -14.7457 18.0339 -0.00788899 -0.00353352 -0.00160809 3.3924 3.84183 -1.10901 
10499 1.008 3.9249 -15.4029 17.6099 0.0124479 0.00193314 0.0198525 -0.589151 -0.195475 4.56978 
ITEM: TIMESTEP
1000
ITEM: NUMBER OF ATOMS
21
ITEM: BOX BOUNDS pp pp pp
-25.9769 25.9769
-28.1619 28.1619
-38.3389 38.3389
ITEM: ATOMS id mass x y z vx vy vz fx fy fz 
12690 15.994 -16.2556 -27.4474 -12.0225 -0.00233384 -0.00217928 6.50665e-06 6.3734 5.01397 -4.37909 
12692 1.008 -15.7085 -27.6948 -11.2228 -0.0127124 -0.004352 0.00642569 0.193283 0.495787 -0.541045 
12691 1.008 -15.9018 -26.6007 -12.4199 0.0169376 -0.0132964 -0.00652893 0.241097 -0.741158 0.589892 
11366 1.008 -17.6783 15.3752 -1.93372 0.0121196 0.0149067 -0.00131025 -0.653799 0.708742 -0.35922 
11365 1.008 -19.1858 15.6985 -1.39481 0.0111276 -0.00795927 0.00963265 0.23333 0.386683 -0.562648 
11364 15.994 -18.4741 15.9709 -2.04232 -0.000480818 -0.00177946 -0.000524508 0.769026 -0.70021 1.28342 
13538 1.008 -18.6593 7.20685 7.57471 -0.000702692 0.00732442 0.00420789 0.478335 0.115161 0.0631898 
13536 15.994 -19.4898 6.82403 7.97949 0.00319808 -0.00615605 -0.00054246 16.0677 -1.3996 -5.37979 
13537 1.008 -19.2449 6.23649 8.75076 0.00797405 0.00232799 0.00439936 0.164002 0.290067 -0.154469 
13585 1.008 -14.5631 13.2573 27.5177 0.0065717 -0.00172684 0.0120744 0.0581472 -2.25608 6.42756 
13584 15.994 -14.8272 14.0742 28.0304 -0.0024407 0.00359797 -0.00109316 -18.6355 5.21855 5.32253 
13586 1.008 -14.0837 14.7423 28 -0.001813 0.00319103 0.00527087 -0.239055 -0.805667 1.5487 
10344 15.994 4.26122 -3.78844 -31.9404 -0.0043061 -7.84725e-06 0.000167047 1.44363 5.33441 -6.15354 
10346 1.008 3.72145 -3.07652 -32.3896 -0.000840685 0.0152526 0.0201844 0.639098 -0.889772 0.471926 
10345 1.008 4.98632 -4.09627 -32.5564 -0.0294792 -0.0132359 -0.0228349 -3.13668 2.76047 -0.162833 
12728 1.008 23.7458 -4.33562 -21.9201 0.00105761 0.00305409 -0.0112091 -5.26365 -5.96518 6.46449 
12727 1.008 22.9201 -2.94879 -22.1702 -0.0031286 -0.00182483 -0.024518 5.20275 -0.599926 3.8289 
12726 15.994 22.835 -3.9295 -21.9943 -0.000225285 0.00269262 0.00225165 -17.2949 15.83 -8.83538 
10498 1.008 3.89012 -14.0123 17.2884 -0.0170308 -0.0107563 -0.0138944 0.871323 4.4922 5.91671 
10497 15.994 3.74332 -14.6674 18.0295 -0.00376888 0.00284553 0.000798301 -1.09129 -2.95303 -4.59262 
10499 1.008 4.60464 -15.1285 18.243 0.00240761 0.0145943 0.00122771 0.553942 2.15831 0.267066 
ITEM: TIMESTEP
2000
ITEM: NUMBER OF ATOMS
21
ITEM: BOX BOUNDS pp pp pp
-25.9674 25.9674
-28.2579 28.2579
-38.2667 38.2667
ITEM: ATOMS id mass x y z vx vy vz fx fy fz 
12690 15.994 -14.7988 -27.366 -12.0644 0.00432259 0.00119303 -9.33963e-05 -5.467 0.137501 4.63213 
12691 1.008 -14.8864 -26.6015 -11.4256 -0.0253344 0.000595707 -0.00344534 0.117372 -1.01261 -1.78404 
12692 1.008 -14.6624 28.3015 -11.5529 -0.00314776 0.00301857 0.00492727 0.0439146 -0.263033 -0.659234 
11366 1.008 -19.9542 16.6694 -1.83189 0.00798104 -0.00825987 0.0196011 0.933856 -0.516647 -0.343075 
11365 1.008 -18.6879 15.833 -1.22817 0.0240886 -0.00497388 -0.00965192 -0.379138 0.340912 -0.893866 
11364 15.994 -19.0939 16.213 -2.05924 0.00274094 -0.00805369 -0.000627033 3.80597 2.49683 4.82894 
13538 1.008 -19.2716 4.88189 7.90458 0.0111997 -0.000694782 -0.000592376 -0.249213 0.290655 0.206595 
13536 15.994 -18.8188 5.7711 7.96992 0.00399926 0.00290434 0.00029259 -7.43698 3.70932 1.41381 
13537 1.008 -19.3455 6.37041 8.57276 -0.004165 9.24575e-05 -0.00405017 -0.342121 -0.0897677 0.14844 
13585 1.008 -14.6472 11.6824 27.228 0.000566804 0.00385484 1.49701e-05 1.98341 -2.78807 2.86692 
13584 15.994 -15.0919 12.107 28.0166 -0.00592915 -0.00197206 -0.00051401 0.277336 -2.59318 1.73998 
13586 1.008 -14.4299 12.6724 28.5087 -0.0104277 -0.00424823 0.00814086 -0.94468 -0.0185388 0.746838 
10344 15.994 4.91791 -3.98412 -31.9355 -0.00785573 -0.00388923 1.64242e-05 5.6415 -6.54865 5.40863 
10346 1.008 4.50653 -3.30889 -32.5477 -0.00948349 -0.00823966 -0.00369018 -4.41989 1.28591 5.57058 
10345 1.008 5.31345 -4.72708 -32.4755 0.00769459 0.0018929 0.00342957 -3.81459 1.88213 -4.58272 
12726 15.994 22.0415 -4.18192 -22.0446 -0.00111783 -0.00438369 -0.000686658 11.2556 -8.39695 8.43468 
12727 1.008 21.9386 -3.79356 -21.1288 -0.0182806 -0.0173488 0.00287347 -2.13509 0.204434 -1.35051 
12728 1.008 22.9775 -4.51305 -22.1635 0.00433635 0.00795923 0.00802177 1.17855 1.49386 3.82762 
10498 1.008 4.23495 -14.0334 17.6599 0.0155142 -0.0023837 0.00864875 -1.75691 0.0531623 1.22618 
10497 15.994 3.90453 -14.8895 18.0572 -0.00138256 9.01583e-05 -6.88285e-05 -2.08424 -1.07389 1.3932 
10499 1.008 4.10203 -15.6453 17.4328 -0.0158936 0.00248534 -0.00755664 0.987031 2.05411 -1.07534 
ITEM: TIMESTEP
3000
ITEM: NUMBER OF ATOMS
21
ITEM: BOX BOUNDS pp pp pp
-25.9174 25.9174
-28.2668 28.2668
-38.2693 38.2693
ITEM: ATOMS id mass x y z vx vy vz fx fy fz 
12691 1.008 -16.2852 -26.9027 -12.604 0.00995908 -0.000819212 -0.0147086 0.841676 0.233572 0.784406 
12690 15.994 -15.5415 -27.0545 -11.953 -0.00395526 -0.0030534 0.000681974 1.18883 0.841629 0.124674 
12692 1.008 -15.1074 -27.9354 -12.1416 0.00319698 -0.000216581 0.00388763 0.266959 0.27488 0.300744 
11366 1.008 -17.907 16.8002 -1.74211 0.00259399 -0.00108906 -0.0114696 -0.293408 0.0409579 -0.0759796 
11365 1.008 -18.9897 16.9989 -2.94872 -0.0120013 0.00198137 0.00210735 0.091675 -0.029071 0.378703 
11364 15.994 -18.8672 16.9798 -1.95646 8.11907e-05 -9.16207e-05 0.000590043 1.01803 0.17385 0.204822 
13538 1.008 -20.4515 6.15193 8.40495 0.00847374 0.00152479 0.00574284 0.546984 0.521176 -0.791096 
13536 15.994 -19.6843 5.69988 7.94997 0.00168928 -0.00306136 -0.00115605 3.39178 -3.84684 0.193785 
13537 1.008 -19.508 4.81882 8.3889 0.0157778 0.00660696 0.0126002 0.451652 0.682331 -0.867253 
13585 1.008 -14.784 12.1803 27.4626 0.0112575 0.0103104 0.00177838 -4.79487 0.588224 -1.66052 
13584 15.994 -15.1526 12.9139 28.0335 -0.00220084 0.00573448 -0.000994492 2.36106 7.37359 12.6952 
13586 1.008 -14.5352 13.7001 28.0065 -0.00524571 0.00865342 0.0140013 1.36513 -1.29991 -1.0891 
10344 15.994 5.7722 -5.66795 -31.984 0.00313262 0.00503349 0.00110839 -1.24158 -1.19759 -1.98417 
10346 1.008 6.22438 -5.94168 -32.8329 -0.000642692 0.0177302 -0.00501259 1.46354 0.451879 1.13002 
10345 1.008 5.60096 -6.47663 -31.4212 0.000839482 -0.00400807 -0.0125743 -0.651817 0.455999 -0.710623 
12728 1.008 22.7371 -4.33772 -21.9214 -0.00846048 -0.00588835 -0.0383719 -0.469182 4.31772 3.50422 
12726 15.994 21.9813 -3.68862 -22.0076 -0.00437084 0.00416283 0.000976856 10.9691 -15.4125 1.54296 
12727 1.008 22.3359 -2.7549 -21.9585 0.00568634 -0.000763252 0.0228721 0.17473 -1.87391 -8.82652 
10498 1.008 3.83492 -13.9091 17.7202 -0.01131 0.00401246 -0.00473315 -4.31307 2.81401 -1.60344 
10497 15.994 3.17529 -14.6194 17.9657 -0.00370624 -0.0014526 -0.000145976 -4.73857 0.995074 2.2869 
10499 1.008 3.45235 -15.0497 18.8248 -0.0037158 0.0128632 0.00704937 5.21041 -1.06949 -2.92329 
ITEM: TIMESTEP
4000
ITEM: NUMBER OF ATOMS
21
ITEM: BOX BOUNDS pp pp pp
-25.9668 25.9668
-28.1528 28.1528
-38.2208 38.2208
ITEM: ATOMS id mass x y z vx vy vz fx fy fz 
12691 1.008 -15.2617 -25.8591 -11.8728 -0.00357206 -0.00229872 9.85986e-05 -0.0104078 -0.0921611 -0.0539621 
12690 15.994 -15.6457 -26.7759 -11.9825 0.00134008 -0.00431844 -0.000218128 2.10443 -1.01715 -2.60999 
12692 1.008 -14.9648 -27.3747 -12.4043 0.00598619 -0.00156787 0.00336246 0.233259 0.096797 0.00862546 
11366 1.008 -18.8935 18.3575 -2.76706 0.00120513 -0.00798074 -0.00191106 -0.0528862 0.0273989 -0.0812384 
11365 1.008 -18.5122 17.9005 -1.24608 0.00604075 -0.00481921 -0.00217096 -0.0987189 0.00728475 -0.128592 
11364 15.994 -19.1579 17.7741 -1.99917 0.00345793 -0.00614928 0.000257263 -0.727387 0.234969 -2.05711 
13538 1.008 -20.1446 6.76075 7.48268 -0.00716414 -0.00745192 0.00836873 -0.431431 -0.556325 -0.127319 
13536 15.994 -19.5612 6.14007 8.00654 0.00105419 -0.00798806 -0.00141037 -2.77282 3.58254 -3.77134 
13537 1.008 -18.8067 6.65492 8.41349 -0.0107078 -0.00292139 0.0140096 -0.598191 -1.128 -0.12055 
13585 1.008 -14.6937 12.1595 27.4353 -0.0189801 0.0114748 -0.00942381 -1.11441 -2.3855 3.12219 
13584 15.994 -15.0482 12.8756 28.0366 -0.00548916 0.0108687 -0.00073821 -10.1023 -5.17405 -1.35566 
13586 1.008 -14.4553 13.6791 27.9843 0.0185384 -0.00544369 0.021137 -0.11961 -4.80702 -2.14512 
10344 15.994 6.42242 -6.09195 -32.0222 0.00241132 0.00311729 -0.000298295 -7.72052 -0.419524 -3.15875 
10346 1.008 7.11151 -6.63925 -32.4972 0.0186974 0.0179781 0.00624469 1.98456 5.31902 -0.0811265 
10345 1.008 6.19439 -6.52565 -31.1505 0.00500222 -0.000679551 -0.00151163 3.4428 -0.833442 0.362286 
12726 15.994 22.3037 -4.16692 -22.0161 0.00520242 0.00653433 -4.10061e-05 5.16491 11.8022 -0.532992 
12728 1.008 22.9881 -4.67327 -21.4916 0.00765497 -0.0117007 -0.020879 -0.670508 -1.26288 -4.22467 
12727 1.008 22.6644 -3.26463 -22.2522 0.00771968 0.0111441 0.0215296 1.24038 0.558173 5.69937 
10498 1.008 4.24598 -13.8838 17.682 0.0112439 0.0012047 0.0104961 -4.83231 3.4401 -0.0108481 
10497 15.994 3.59577 -14.5778 17.9912 0.0017398 0.00485324 -0.00124177 -1.38547 -1.76014 1.68904 
10499 1.008 4.08834 -15.3124 18.4577 -0.0109812 0.00293103 0.00920711 4.11157 1.91346 -2.5653 
ITEM: TIMESTEP
5000
ITEM: NUMBER OF ATOMS
21
ITEM: BOX BOUNDS pp pp pp
-25.8702 25.8702
-28.2198 28.2198
-38.4118 38.4118
ITEM: ATOMS id mass x y z vx vy vz fx fy fz 
12691 1.008 -14.6104 -27.7123 -11.4773 0.00116344 0.00596194 0.0100901 -0.564328 -0.277935 0.31571 
12690 15.994 -14.9025 -26.9349 -12.0343 0.00288386 -0.000739822 -0.00016367 -2.66062 -8.58617 6.37025 
12692 1.008 -15.8964 -26.8389 -11.9784 0.00231701 -0.00244981 -0.00749318 -0.0260028 -0.493324 0.389391 
11366 1.008 -19.68 18.5525 -1.46012 0.017962 -0.000803279 0.0044403 0.214679 -0.422414 0.0656993 
11365 1.008 -19.2672 18.0287 -2.95105 0.0111704 0.00333175 0.00109695 0.136994 -0.309447 0.124577 
11364 15.994 -19.2379 17.8173 -1.97409 0.00715927 -0.00394787 -0.000348978 3.74329 1.61116 0.55217 
13538 1.008 -19.8525 5.46177 7.45179 -0.00762304 -0.0111422 -0.0157289 0.77211 -0.684456 -0.166626 
13536 15.994 -19.6456 4.64181 7.98551 -0.00152201 0.00177586 0.00174422 -5.77785 9.71187 -0.527379 
13537 1.008 -20.2536 4.59724 8.77817 -0.0192521 4.42806e-05 -0.0119467 1.06008 -0.636074 -0.546858 
13585 1.008 -15.1355 11.9279 27.4096 0.0184893 -0.0136808 0.0181689 0.986386 -0.301546 3.58244 
13584 15.994 -15.3384 12.6703 28.0481 0.0126949 0.00083837 -0.000578871 -0.228628 5.67113 3.91318 
13586 1.008 -14.7726 13.4647 27.827 0.0199443 -0.00667323 -0.00898397 -0.805359 0.079105 -0.81974 
10344 15.994 8.18551 -6.11448 -32.0214 -0.0017977 0.00321285 0.000918895 2.11454 3.41699 -1.3027 
10346 1.008 9.11127 -6.39124 -32.279 -0.00647504 0.00359276 -0.0163167 -0.187538 -1.89658 4.02312 
10345 1.008 7.80364 -6.7814 -31.3815 0.00735357 -0.00125453 0.00173655 -2.78648 3.37781 1.07559 
12727 1.008 22.2076 -2.96716 -22.0057 -0.00183471 0.0034144 -0.00879992 2.61716 -0.534653 -3.07333 
12728 1.008 22.6812 -4.43762 -21.4756 -0.0159906 0.0128108 0.0299196 1.29995 0.950948 -5.90021 
12726 15.994 22.011 -3.94728 -22.0327 0.00229651 0.00238961 -0.00133104 -0.595179 1.07313 17.0837 
10498 1.008 4.31817 -14.4609 17.6852 -0.0177928 -0.00452151 -0.013325 0.00907201 -2.233 -2.33768 
10497 15.994 4.15966 -15.3849 18.033 0.00371661 -0.00302476 0.00042241 1.6818 4.37603 -2.53062 
10499 1.008 4.93342 -15.9702 17.7906 0.0160082 0.0106829 0.00662261 0.527501 1.16675 2.78963 
ITEM: TIMESTEP
6000
ITEM: NUMBER OF ATOMS
21
ITEM: BOX BOUNDS pp pp pp
-25.9305 25.9305
-28.1839 28.1839
-38.4642 38.4642
ITEM: ATOMS id mass x y z vx vy vz fx fy fz 
12691 1.008 -14.3405 -26.6815 -12.8805 0.00131024 0.00517346 0.000804033 -0.318631 -0.0615287 0.139126 
12690 15.994 -14.7247 -26.536 -11.9687 -0.00140356 0.00288049 1.82587e-05 -1.4793 -6.84864 4.10581 
12692 1.008 -15.0829 -27.4003 -11.6157 0.00220327 0.000930298 -0.00109375 -0.247221 -0.458749 -0.0864186 
11366 1.008 -19.5364 16.2969 -1.49692 -0.00353194 -0.00549759 -0.0148908 0.640324 0.456034 -0.456654 
11365 1.008 -19.4323 17.7591 -2.21708 0.00784083 0.000133511 -0.00181557 0.10909 0.119113 -0.108319 
11364 15.994 -18.9428 16.9102 -2.01802 0.00540485 -0.000600209 0.00105289 -2.63549 -0.723068 -4.93968 
13538 1.008 -19.6381 4.97454 7.17223 0.00218079 -0.00468777 0.00303122 -0.150883 0.488799 0.0530599 
13536 15.994 -19.8358 5.49702 8.00165 -0.0107416 -0.00414901 -0.00039439 1.38044 -1.58076 -0.617048 
13537 1.008 -19.7284 4.90666 8.80162 0.000348106 0.00278362 0.00322658 -0.195492 0.610971 -0.0309118 
13585 1.008 -15.0722 13.2662 27.8627 -0.0106963 -4.51776e-05 -0.00763415 -1.95243 -0.154746 -2.53581 
13584 15.994 -15.4486 14.177 28.0322 0.00214371 0.00347635 0.00189637 11.1048 -3.85703 0.162318 
13586 1.008 -14.8493 14.8668 27.6261 -0.00718955 -0.00270478 -0.0224557 1.32788 0.305512 6.14029 
10344 15.994 7.74727 -5.87961 -32.0545 0.00580357 0.000203324 -4.56245e-05 -1.73999 4.74713 -1.74887 
10345 1.008 6.97612 -6.38201 -31.6634 0.008337 -0.0049551 -0.00169246 1.94568 -3.33797 -0.954189 
10346 1.008 8.55196 -5.99742 -31.4726 0.00498083 0.00674343 0.00241639 1.29503 -0.935266 -2.50894 
12727 1.008 22.3411 -2.95216 -21.9453 -0.00324614 -0.00673853 -0.0161549 0.418716 -0.526949 -3.89519 
12728 1.008 22.9421 -4.44775 -21.6815 0.00643181 -0.00200352 -0.0113606 -0.124671 0.488531 1.81728 
12726 15.994 22.1567 -3.93189 -22.0235 -0.00331063 -0.00814265 0.00173412 17.4179 -2.91358 2.20474 
10498 1.008 3.90883 -13.6792 17.8578 0.0055143 0.00510712 0.00512616 6.94562 -1.96208 -1.00293 
10497 15.994 3.6998 -14.6522 17.956 -0.00286869 0.00643977 0.000381544 -9.26125 -0.321722 -2.77169 
10499 1.008 4.03537 -14.9781 18.8399 0.0151305 -0.00627934 -0.0111801 1.27204 -3.86431 -3.98808 
ITEM: TIMESTEP
7000
ITEM: NUMBER OF ATOMS
21
ITEM: BOX BOUNDS pp pp pp
-25.9084 25.9084
-28.1727 28.1727
-38.2893 38.2893
ITEM: ATOMS id mass x y z vx vy vz fx fy fz 
12690 15.994 -15.4656 -27.4029 -12.0625 0.00103315 0.00610773 4.783e-05 2.85055 1.77352 -2.75923 
12692 1.008 -16.1267 -27.1207 -11.3673 -0.0105743 -0.0128258 -0.00330661 1.18007 -0.754488 -0.619828 
12691 1.008 -14.7606 -27.9732 -11.6408 0.0120766 0.0216147 0.00254769 -0.953661 0.4888 0.123668 
11366 1.008 -19.1921 16.5424 -1.48226 0.00555123 -0.00394509 -0.0051527 -0.0518119 0.136904 0.095807 
11365 1.008 -19.5725 17.1798 -2.93713 0.0195099 0.00764149 -0.00373298 0.039838 0.296818 0.689812 
11364 15.994 -19.4037 17.3873 -1.97357 0.00528196 -0.000691251 0.000560008 1.4804 0.0748181 0.284616 
13538 1.008 -19.2524 4.78834 8.16896 0.0223745 0.00284143 0.000467406 -0.793139 1.19182 0.787714 
13536 15.994 -19.4861 5.75218 8.04093 -0.000330551 -0.00280424 -0.000580926 1.11043 -1.25977 -0.570654 
13537 1.008 -19.0933 6.07962 7.18159 0.00869234 0.0108627 0.00875018 -0.685111 0.66751 0.900083 
13585 1.008 -14.7283 12.8146 27.7848 0.0212325 0.00353398 0.00326758 -2.79529 1.66817 -7.62736 
13584 15.994 -15.1256 13.702 28.0186 0.00335228 -0.00318871 -0.00154071 7.36133 -2.76109 13.7758 
13586 1.008 -14.4312 14.4149 27.9205 -0.00344678 0.00658632 0.021179 -3.07479 0.141033 -5.67475 
10344 15.994 8.16945 -5.70511 -32.06 0.00413644 -0.00121919 -0.000415255 1.3421 -11.1837 1.22352 
10345 1.008 7.42303 -5.88313 -31.4188 0.00901834 0.0122878 0.00903078 0.206223 -3.72052 -1.73005 
10346 1.008 9.04203 -5.93392 -31.6285 0.00737293 0.00737474 -0.0024419 0.669681 5.24303 1.54422 
12726 15.994 22.4222 -3.81868 -22.0281 0.00137896 -0.00773406 -0.00106888 0.793143 5.7864 -4.37758 
12727 1.008 22.66 -2.85869 -21.8803 0.00799122 -0.0111663 0.0105758 1.12725 -0.153045 -1.76216 
12728 1.008 23.1529 -4.40205 -21.6736 -0.0100337 -0.0174717 0.00638418 -2.59773 -0.193324 2.35378 
10498 1.008 3.80124 -13.8757 17.8766 0.00367595 0.00600449 -0.00623507 -0.141728 -1.1354 -5.48045 
10497 15.994 3.29019 -14.7297 17.9746 0.00136605 0.00817901 0.000538001 -4.4635 -4.20757 -0.483275 
10499 1.008 3.81927 -15.3738 18.527 0.00377552 0.00772181 -0.00230142 -0.394317 2.86878 3.66602 
ITEM: TIMESTEP
8000
ITEM: NUMBER OF ATOMS
21
ITEM: BOX BOUNDS pp pp pp
-26.0423 26.0423
-28.1737 28.1737
-38.1846 38.1846
ITEM: ATOMS id mass x y z vx vy vz fx fy fz 
12690 15.994 -15.4574 -25.8368 -11.9703 0.00187304 -0.00280539 0.00139994 -0.97684 -10.7974 3.32679 
12692 1.008 -15.865 -24.9408 -11.7941 -0.0173704 -0.00949894 -0.00904063 0.808933 -1.59033 -0.320756 
12691 1.008 -15.9841 -26.31 -12.6765 0.0286299 -0.0108478 -0.0131723 1.2787 0.949475 1.50611 
11366 1.008 -20.1959 17.6637 -1.57474 0.00769806 -0.00181305 0.0014385 -0.0342025 0.0235776 -0.0442298 
11364 15.994 -19.5696 18.2708 -2.06385 0.00272652 0.00212119 -5.01842e-05 0.338243 -2.88416 -0.298569 
11365 1.008 -19.1192 18.8811 -1.41215 0.00345718 0.00222123 -0.000642225 -0.0548654 -0.0250911 -0.116836 
13538 1.008 -19.3797 5.06237 8.1798 -0.00117985 -0.00671767 -0.00392528 -0.657909 -0.168523 -0.159711 
13536 15.994 -18.4128 5.27769 8.04295 -0.00128971 -0.00351312 0.000347047 -11.1534 -1.44149 2.31309 
13537 1.008 -18.1252 4.96195 7.13873 0.00168263 0.00470071 -0.00158134 -0.479006 0.10123 0.36379 
13585 1.008 -15.1913 12.0329 27.5409 -0.0299119 0.000623889 -0.0111971 3.2166 1.22559 4.6677 
13584 15.994 -15.4355 12.8578 28.0507 0.0019558 0.00207323 0.00180802 -3.56582 -1.86604 -6.73809 
13586 1.008 -14.9648 13.6463 27.655 -0.00722453 -0.00209828 -0.0174908 0.150938 0.808956 4.76282 
10344 15.994 8.32472 -5.37396 -32.0332 0.00240453 -0.00258015 0.000639102 6.74944 -5.46236 -1.30685 
10345 1.008 7.90051 -6.17559 -31.612 -0.010361 -0.000184514 -0.00763372 0.371953 2.68454 4.26343 
10346 1.008 9.30971 -5.38841 -31.8612 0.00267323 -0.0218957 -0.00250695 -0.423007 0.547567 -0.5147 
12728 1.008 22.9934 -3.70017 -21.5282 0.00987753 0.0176748 -0.00542683 -0.112006 0.334854 -1.80019 
12726 15.994 22.2194 -3.2855 -22.0067 -0.00523306 -0.00278302 0.00128921 10.8053 -6.61893 -3.94914 
12727 1.008 22.4888 -2.39195 -22.3658 -0.0271194 -0.00273609 -0.0150291 -0.913229 -1.1138 1.82432 
10498 1.008 3.64962 -13.5127 17.7028 -0.00353239 0.00260962 -0.00283436 -0.226317 0.391717 1.13154 
10497 15.994 3.13317 -14.3213 17.9846 -0.000670022 0.00228741 0.0015039 -2.17044 -1.12151 -4.19988 
10499 1.008 3.7162 -14.9121 18.5422 0.0108632 -0.00764014 -0.0210282 -3.33881 1.78384 1.84972 
ITEM: TIMESTEP
9000
ITEM: NUMBER OF ATOMS
21
ITEM: BOX BOUNDS pp pp pp
-26.0692 26.0692
-28.1282 28.1282
-38.1797 38.1797
ITEM: ATOMS id mass x y z vx vy vz fx fy fz 
12690 15.994 -15.6784 -27.2941 -12.0104 -0.00365974 -0.00117402 -1.88254e-05 1.68989 -1.11427 -1.17009 
12692 1.008 -16.5916 -27.5979 -11.7387 -0.00361796 -0.0183874 -0.019146 1.75039 -0.228594 -0.598454 
11366 1.008 -19.4851 16.7116 -2.85903 -0.000323453 -0.0217607 0.009017 0.027965 0.391514 1.18009 
11364 15.994 -19.5884 17.1174 -1.95091 0.0038516 -0.000279771 -0.000105986 -1.18041 -0.486151 -2.15453 
11365 1.008 -20.43 17.6566 -1.91995 0.00122375 -0.00397278 -0.00733531 0.139695 -0.0416408 0.222754 
12691 1.008 -15.0749 28.1697 -12.0968 0.0149129 0.0108491 0.0194447 -1.90764 0.992146 0.322735 
13538 1.008 -19.9265 4.41509 8.4801 -0.0141814 -0.000812216 -0.00739828 0.00836705 0.664446 -0.0662442 
13536 15.994 -19.7668 5.29022 8.0233 -0.000916949 0.000909301 0.000551778 -0.168401 0.0443913 -0.994483 
13537 1.008 -19.3056 5.13179 7.15024 -0.00422877 0.0017761 -0.00135681 0.0251956 0.218262 -0.0398058 
13585 1.008 -15.1187 12.3319 27.5109 0.00205749 -0.00689332 0.00786157 -2.10516 -1.46157 0.605783 
13584 15.994 -15.6035 13.0353 28.0307 -0.00115735 -0.00305623 -0.00033959 3.55968 4.85676 -0.693113 
13586 1.008 -15.0844 13.8894 28.0014 -0.00039931 -0.00360094 -0.00247327 2.986 -1.40611 -0.541554 
10344 15.994 9.76189 -6.34409 -32.0614 0.00762293 0.00143649 0.000361398 -11.4075 -0.80778 2.56939 
10345 1.008 8.97773 -6.46375 -31.4524 0.00148502 0.00395617 -0.00705506 -1.31936 8.97431 0.756286 
10346 1.008 10.4931 -5.86662 -31.5741 -0.00265512 0.0162281 0.00132074 2.66417 -3.01725 -3.62472 
12727 1.008 22.1763 -2.53638 -22.1636 -0.00591158 0.00653428 0.00895261 1.89811 -1.56737 -2.5569 
12728 1.008 22.044 -3.81304 -21.1535 -0.0161498 0.00620948 0.00719406 5.77571 -2.31594 -3.25524 
12726 15.994 21.7744 -3.44408 -22.043 0.00365312 0.000970938 -0.00101762 4.98952 2.61443 11.9742 
10498 1.008 3.80774 -14.4947 17.4748 0.0116411 -0.0150495 0.00157745 0.802515 1.44337 2.90803 
10497 15.994 3.292 -15.1852 17.982 -0.0018977 -0.00628253 -0.000273079 -13.379 12.684 -14.2405 
10499 1.008 3.79348 -15.4347 18.8104 -0.0102801 -0.0130481 0.00275551 1.33877 -9.55203 -5.71752 
ITEM: TIMESTEP
10000
ITEM: NUMBER OF ATOMS
21
ITEM: BOX BOUNDS pp pp pp
-25.8694 25.8694
-28.2111 28.2111
-38.362 38.362
ITEM: ATOMS id mass x y z vx vy vz fx fy fz 
12690 15.994 -15.4719 -27.3482 -12.0212 0.00369036 -0.000626837 0.000301007 -1.63288 1.76277 -1.10375 
12691 1.008 -16.2332 -26.7854 -12.3432 0.00863851 -0.00702141 -0.0226006 1.29937 -0.0921302 0.676957 
12692 1.008 -14.9615 -26.8499 -11.3203 -0.023399 0.00245971 0.0178245 -1.77256 -0.524105 -2.01565 
11366 1.008 -18.4018 17.3676 -2.68903 0.00719612 -0.00293795 0.00595204 -0.377669 0.319324 -0.0200401 
11364 15.994 -19.1213 17.4562 -2.00023 0.00089513 0.00248904 -0.00133179 0.453458 -1.67966 0.51092 
11365 1.008 -19.0097 16.7438 -1.30738 0.00542921 0.0192588 0.0151796 -0.431455 1.00986 -0.746111 
13538 1.008 -19.4016 5.51812 7.98446 -0.00152482 0.00465729 -0.0041854 -0.102176 -0.0869837 0.134046 
13536 15.994 -18.9918 6.42971 7.95212 0.00197614 0.00325266 0.000240246 -2.18502 -2.60015 0.553359 
13537 1.008 -19.2441 6.93848 8.77524 -0.000138288 0.00197605 0.000373403 -0.00388613 -0.0762594 0.00394236 
13585 1.008 -14.6531 12.5634 27.8469 0.00129485 0.00169302 0.00226954 -2.29999 1.24345 -7.45711 
13584 15.994 -15.159 13.4094 28.0153 0.00339883 0.00328582 0.000659731 -13.6792 7.48177 8.93276 
13586 1.008 -14.5452 14.1918 27.9106 0.0024666 0.0022372 -0.0127375 -1.64043 0.541096 0.697567 
10344 15.994 10.2831 -5.89981 -32.0543 0.00737449 -0.00266049 5.22533e-06 -4.37367 -2.7065 -6.2115 
10345 1.008 9.45757 -5.50079 -31.6551 0.00513733 -0.00511236 -0.00216056 -0.424859 -1.98986 1.02206 
10346 1.008 11.0724 -5.67506 -31.4829 0.00521079 -0.00033197 0.00207765 0.836606 5.23341 -4.12298 
12728 1.008 22.5056 -4.55192 -21.0832 0.026415 0.00855674 0.00446903 7.65985 -5.34528 -2.60122 
12726 15.994 22.5836 -4.30596 -22.0494 0.00203386 0.000142661 0.000399547 -4.5392 16.5674 1.50979 
12727 1.008 22.712 -3.31777 -22.133 0.0144238 -0.00240765 -0.0108087 4.97503 0.0188316 4.32866 
10498 1.008 3.68643 -14.0184 17.5408 0.00814304 -0.0137017 -0.00162993 -1.82811 4.11166 4.70667 
10497 15.994 3.04422 -14.6418 17.9867 -0.00254927 -0.00204852 -0.000689886 -1.35947 -8.28115 -10.0133 
10499 1.008 3.52899 -15.1879 18.67 -0.0153963 0.00317079 0.0125764 -0.930819 3.0973 1.5583 
ITEM: TIMESTEP
11000
ITEM: NUMBER OF ATOMS
21
ITEM: BOX BOUNDS pp pp pp
-25.8575 25.8575
-28.1664 28.1664
-38.424 38.424
ITEM: ATOMS id mass x y z vx vy vz fx fy fz 
12690 15.994 -15.2375 -26.7601 -12.0084 0.001343 -0.00796966 -0.000394891 0.554572 2.15188 2.69263 
12691 1.008 -15.0444 -26.2951 -11.1444 -0.0338986 -0.0101973 0.00869166 -0.675682 -0.509735 -3.03293 
12692 1.008 -15.4075 -26.0809 -12.7224 0.0166664 -0.00625544 -0.00242589 0.260766 0.165449 0.960865 
11366 1.008 -18.6419 17.4821 -2.16666 -0.00479459 0.00492285 -0.00562076 -0.00116176 -0.309357 -0.160455 
11364 15.994 -18.7077 16.5096 -1.94318 0.00362583 0.00562371 -5.80898e-05 0.278895 -0.322318 -0.0168855 
11365 1.008 -18.4299 15.9656 -2.73496 0.0185377 0.00361157 0.00654247 -0.180644 0.582006 0.337667 
13538 1.008 -18.8821 5.59665 7.42163 0.00476711 -0.00261278 0.00158522 -0.0806923 -0.076275 0.215089 
13536 15.994 -19.2324 4.8653 8.00676 -0.00304062 -0.000444026 -0.000364935 -4.29438 2.42832 1.60938 
13537 1.008 -20.0613 5.17742 8.47109 0.0030086 0.00884235 0.00420522 0.0944608 -0.00709673 0.11459 
13585 1.008 -15.0437 12.2972 27.7305 0.00897463 -0.0036004 0.0141772 -3.99618 1.20708 -3.67561 
13584 15.994 -15.577 13.0906 28.0238 -0.00253408 -0.00521836 -0.00227985 -7.02563 15.0727 2.18749 
13586 1.008 -15.0378 13.9224 27.8923 0.00202868 -0.00434515 0.0219973 -1.59458 0.371642 2.95975 
10344 15.994 10.3764 -6.21511 -31.9952 -0.0053528 0.00294935 0.00149654 0.330878 4.16835 -3.42313 
10345 1.008 9.52269 -5.93688 -31.5551 0.00311401 0.0166145 0.00928705 1.44687 0.577804 0.603418 
10346 1.008 10.7456 -5.44927 -32.5217 -0.0178143 -0.0147502 -0.0330327 -1.66939 -1.51703 3.61403 
12728 1.008 23.295 -4.49436 -21.1029 -0.00119627 -0.0102625 -0.00617309 -0.497886 -1.14276 -1.48612 
12726 15.994 23.1377 -4.21787 -22.0509 -0.00474246 0.00665459 -0.000656762 -4.40321 -0.16585 -5.63533 
12727 1.008 22.9806 -3.23104 -22.0891 0.00291537 0.00854072 0.016594 3.7488 -0.215604 0.522171 
10498 1.008 2.89055 -14.7817 17.1561 -0.0207341 0.0219789 -0.00463541 -0.898599 3.12912 2.98083 
10497 15.994 2.42207 -14.9802 18.0169 -0.000601597 -0.00233525 0.000702401 4.09735 -9.06658 -1.82111 
10499 1.008 2.99105 -15.5841 18.5751 0.0362701 0.0257685 -0.00650964 -1.34587 5.94175 -0.947168 
ITEM: TIMESTEP
12000
ITEM: NUMBER OF ATOMS
21
ITEM: BOX BOUNDS pp pp pp
-25.8791 25.8791
-28.233 28.233
-38.3727 38.3727
ITEM: ATOMS id mass x y z vx vy vz fx fy fz 
12690 15.994 -14.732 -26.7523 -11.9547 -0.00269721 0.000930463 -0.00122071 -6.21984 -0.785189 1.21463 
12691 1.008 -13.7359 -26.839 -11.9375 -0.00234987 0.00755262 0.0118624 -0.958903 -0.403717 1.0021 
12692 1.008 -15.0103 -26.2632 -12.7814 0.00659475 0.020947 0.00750674 -0.896476 -0.673906 1.5178 
11366 1.008 -18.8547 16.8702 -2.90862 0.0037502 -0.00103185 0.00098226 0.0793092 0.161473 0.21368 
11364 15.994 -18.9452 17.1856 -1.96397 -0.00704824 -0.0017805 0.000181881 -1.65662 0.097466 -0.83028 
11365 1.008 -19.892 17.0713 -1.66314 -0.00597726 -0.0212932 -0.00386818 0.84771 0.192876 -0.173136 
13538 1.008 -19.4818 5.83624 8.54635 0.0156201 -0.0039387 0.00560482 -0.179459 -0.720219 0.0660674 
13536 15.994 -19.3198 5.00739 8.01087 0.0013189 -0.00273643 -0.000577298 -0.0716492 0.864243 0.316775 
13537 1.008 -18.6648 5.20409 7.28123 0.007988 -0.00966082 0.0035552 -0.144269 -0.429903 0.124855 
13585 1.008 -15.44 12.5622 27.9559 -0.0110675 -0.00357041 -0.0301109 -3.01629 1.97715 -2.75568 
13584 15.994 -15.8176 13.486 28.0193 0.00381212 0.000219206 0.00283548 1.65167 -6.48309 5.27788 
13586 1.008 -15.1247 14.1499 27.7379 0.000467914 -0.00378319 -0.0148798 -2.18512 2.12857 3.6105 
12726 15.994 23.3532 -4.02232 -22.0454 0.00516739 -0.0076779 0.000561558 5.12238 -23.4905 -0.557828 
12727 1.008 23.2832 -3.02577 -22.09 -0.00205625 -0.00820119 0.000172911 1.08686 -1.69806 -3.21564 
10344 15.994 9.0555 -6.1665 -32.0309 -0.000460451 -0.000101969 -0.00140058 9.53061 4.6066 2.41081 
10345 1.008 8.17771 -5.73 -31.8336 0.00341973 0.00805367 -0.00218749 0.181323 0.437181 -3.0458 
10346 1.008 9.79801 -5.59885 -31.6754 0.00317052 -0.0209935 0.0244106 -2.22995 0.742218 -2.22507 
12728 1.008 23.7965 -4.28786 -21.1893 0.0264955 -0.0032194 -0.00908319 -5.15068 1.30403 2.06083 
10498 1.008 3.31802 -13.7171 17.6725 -0.00769971 -0.0197264 -0.0342746 -0.92673 -3.2134 1.1668 
10497 15.994 2.82047 -14.5252 17.9878 -0.00415968 -0.00761728 0.00234438 -0.863027 3.39637 -2.26957 
10499 1.008 3.43362 -15.1075 18.5216 0.00840467 0.000772624 -0.00292382 -3.08871 -0.0900923 1.85283 
ITEM: TIMESTEP
13000
ITEM: NUMBER OF ATOMS
21
ITEM: BOX BOUNDS pp pp pp
-25.8489 25.8489
-28.2216 28.2216
-38.5421 38.5421
ITEM: ATOMS id mass x y z vx vy vz fx fy fz 
12690 15.994 -14.7599 -26.5201 -12.0291 -0.00227545 -0.000765667 0.00160967 -2.36772 -1.97031 2.46927 
12691 1.008 -15.1008 -27.0263 -11.2369 -0.0197424 -0.0192649 -0.0177219 1.57626 0.613486 -1.73689 
12692 1.008 -15.4332 -25.8325 -12.3008 -0.00380296 -0.00599236 -0.00781879 0.946857 0.114946 -0.903673 
11366 1.008 -19.1605 17.1121 -2.58575 0.00925397 0.00847787 0.00249971 -0.0269603 0.239222 -0.246591 
11364 15.994 -18.8067 16.4284 -1.94758 0.00699262 0.00467288 -0.000320498 -1.98137 4.61089 -3.82459 