LAMMPS data file via write_data, version 15 May 2015, timestep = 12000001

14048 atoms
58 atom types
11360 bonds
54 bond types
9680 angles
55 angle types
5536 dihedrals
43 dihedral types
336 impropers
3 improper types

-2.6006847621566997e+01 2.6006847621566997e+01 xlo xhi
-2.7991104334815919e+01 2.7991104334815919e+01 ylo yhi
-3.8498450841625690e+01 3.8498450841625690e+01 zlo zhi

Masses

1 15.9994
2 15.9994
3 15.9994
4 15.9994
5 15.9994
6 14.0067
7 14.0067
8 14.0067
9 14.0067
10 14.0067
11 14.0067
12 12.011
13 12.011
14 13.019
15 14.027
16 15.035
17 16.043
18 14.027
19 13.019
20 1.008
21 1.008
22 999
23 32.06
24 63.546
25 63.546
26 55.847
27 65.37
28 24.305
29 40.08
30 30.9738
31 39.948
32 18.9984
33 35.453
34 79.904
35 15.035
36 15.9994
37 22.9898
38 35.453
39 12.011
40 35.453
41 1.008
42 32.06
43 15.035
44 15.9994
45 12.011
46 35.453
47 18.9984
48 12.011
49 14.027
50 15.9994
51 12.011
52 15.9994
53 14.0067
54 28.08
55 999
56 999
57 15.994
58 1.008

Pair Coeffs # lj/cut/coul/long/gpu

1 0.30699 2.7601
2 0.41401 2.6259
3 0.25371 2.8492
4 0.25371 2.8492
5 0.15604 3.1656
6 0.15355 3.1365
7 0.15355 3.1365
8 0.15355 3.1365
9 0.15355 3.1365
10 0.15355 3.1365
11 0.15355 3.1365
12 0.066577 3.5812
13 0.0016789 6.6395
14 0.022773 5.0192
15 0.09853 4.0704
16 0.20812 3.7479
17 0.30682 3.7028
18 0.11503 3.9547
19 0.14617 3.6818
20 0.028411 2.3734
21 0 0
22 0 0
23 0.039532 2.309
24 0 0
25 0 1
26 0 0
27 0 0
28 0 0
29 0 0
30 0.58722 3.3856
31 0 0
32 0 0
33 0 0
34 0 0
35 0 0
36 0 0
37 0 0
38 0 0
39 0 0
40 0 0
41 0 0
42 0 0
43 0 0
44 0 0
45 0 0
46 0 0
47 0 0
48 0 0
49 0 0
50 0 0
51 0 0
52 0 0
53 0 0
54 0 0
55 0 0
56 0 0
57 0.15543 3.1655
58 0 0

Bond Coeffs # harmonic

1 375.23 1
2 446.93 1
3 349.266 1.09
4 1109.27 1.12
5 600.228 1.23
6 500.406 1.25
7 499.72 1.32
8 374.994 1.33
9 448.133 1.33
10 498.865 1.33
11 450.606 1.34
12 502.104 1.34
13 450.896 1.36
14 500.667 1.38
15 399.894 1.39
16 498.714 1.39
17 400.048 1.4
18 399.782 1.43
19 450.121 1.43
20 300.214 1.435
21 449.832 1.47
22 299.969 1.48
23 399.958 1.48
24 450.215 1.48
25 450.097 1.5
26 299.837 1.52
27 400.025 1.53
28 299.844 1.61
29 299.72 1.63
30 205.971 1.78
31 449.805 1.78
32 449.818 1.83
33 300.038 1.87
34 59.9664 1.98
35 60.0368 2
36 500.295 2.04
37 63.0342 2.21
38 554.48 1
39 349.92 1.1
40 599.78 1.758
41 449.818 1.53
42 444.33 1.938
43 599.664 1.76
44 501.014 1.265
45 448.645 1.35
46 555.115 1.633
47 350.241 2.3384
48 600.147 2.9028
49 445.873 2.7939
50 443.805 2.9119
51 409.318 2.077
52 600.159 2.8741
53 527.1 1
54 629.318 0.94

Improper Coeffs # harmonic

1 20.0071 0
2 40.0141 35.2644
3 80.0282 0

Atoms # full

8150 722 58 4.0999999999999998e-01 -2.0393510539706199e+01 -2.1344321882533130e+01 -3.1485045274889373e+01 -6 -5 1
8148 722 57 -8.1999999999999995e-01 -2.0274799025623150e+01 -2.0852147329831471e+01 -3.2347404320779077e+01 -6 -5 1
8149 722 58 4.0999999999999998e-01 -1.9728478592056423e+01 -2.0029547177967146e+01 -3.2189786795428546e+01 -6 -5 1
7350 456 57 -8.1999999999999995e-01 -2.1816349122934621e+01 -2.0018138995224501e+01 -3.6218882899090488e+01 -1 4 1
8205 741 57 -8.1999999999999995e-01 -2.1593231541048240e+01 -2.3491840003110713e+01 -2.9733824731555345e+01 6 -5 1
8206 741 58 4.0999999999999998e-01 -2.2410735712116423e+01 -2.3592822983340199e+01 -2.9166831441255582e+01 6 -5 1
8207 741 58 4.0999999999999998e-01 -2.1735872048733334e+01 -2.3951927166872657e+01 -3.0610162227865285e+01 6 -5 1
10407 1475 57 -8.1999999999999995e-01 -2.4005955212754341e+01 -2.1868400616744452e+01 -3.1801087683222988e+01 1 -1 0
10409 1475 58 4.0999999999999998e-01 -2.4590068046472904e+01 -2.2665342301303856e+01 -3.1647218774175471e+01 1 -1 0
7352 456 58 4.0999999999999998e-01 -2.2177682662960191e+01 -2.0300157402470390e+01 -3.5330119663667112e+01 -1 4 1
13581 2533 57 -8.1999999999999995e-01 -1.6447240676248917e+01 -2.6722296450176415e+01 -3.4872695910299960e+01 -5 -4 0
6611 209 58 4.0999999999999998e-01 -1.7887991192030462e+01 -2.3053277078465811e+01 -2.9588227139783996e+01 -7 11 1
7141 386 58 4.0999999999999998e-01 -2.0611827325307868e+01 -2.6980510587124968e+01 -3.0378698638777124e+01 -2 9 1
7140 386 57 -8.1999999999999995e-01 -2.1475069480924400e+01 -2.7144427350906756e+01 -2.9901272761776106e+01 -2 9 1
8950 989 58 4.0999999999999998e-01 -2.2704697053167539e+01 -2.5622196208891065e+01 -3.6916108704812565e+01 3 -6 1
6869 295 58 4.0999999999999998e-01 -2.4463389545963857e+01 -2.5629901608163308e+01 -3.1589724379589985e+01 0 -1 1
10937 1651 58 4.0999999999999998e-01 -2.4334787757860830e+01 -2.6948297738530506e+01 -2.9705823524825007e+01 -7 3 0
9415 1144 58 4.0999999999999998e-01 -2.3647879689397961e+01 -2.2869650774684395e+01 -3.5482003938189187e+01 0 -5 1
8949 989 57 -8.1999999999999995e-01 -2.3125547978679819e+01 -2.5940049100460786e+01 -3.6066489819832157e+01 3 -6 1
9416 1144 58 4.0999999999999998e-01 -2.3018554909151128e+01 -2.4360663888359149e+01 -3.5262047944344836e+01 0 -5 1
9414 1144 57 -8.1999999999999995e-01 -2.3097697208423817e+01 -2.3442323600453403e+01 -3.4874275748337801e+01 0 -5 1
6868 295 58 4.0999999999999998e-01 -2.5878212386194257e+01 -2.5872437365096857e+01 -3.0810595794191208e+01 0 -1 1
6867 295 57 -8.1999999999999995e-01 -2.5106809933547936e+01 -2.6321462297052616e+01 -3.1261489881644710e+01 0 -1 1
11758 1925 58 4.0999999999999998e-01 -1.4907270357312093e+01 -2.3271428008776724e+01 -3.4723497287637208e+01 0 4 0
6610 209 58 4.0999999999999998e-01 -1.7662030398799963e+01 -2.1437959530070842e+01 -2.9673297394244379e+01 -7 11 1
6609 209 57 -8.1999999999999995e-01 -1.7983215134235586e+01 -2.2244841601555322e+01 -3.0169043454793133e+01 -7 11 1
8314 777 58 4.0999999999999998e-01 -1.5014283378316099e+01 -2.1515623364938705e+01 -3.2646487058755575e+01 0 0 1
8344 787 58 4.0999999999999998e-01 -1.7724652787830564e+01 -2.3132243420813115e+01 -3.1936943020293640e+01 5 0 1
11757 1925 57 -8.1999999999999995e-01 -1.4652922814054401e+01 -2.4158475909551569e+01 -3.5108768481445587e+01 0 4 0
11759 1925 58 4.0999999999999998e-01 -1.4844587357556239e+01 -2.4879112457565309e+01 -3.4442485899006378e+01 0 4 0
8343 787 57 -8.1999999999999995e-01 -1.7274381294341978e+01 -2.3763996366273567e+01 -3.2567921160011416e+01 5 0 1
7475 497 58 4.0999999999999998e-01 -1.8175989698155501e+01 -2.4406895715137139e+01 -3.3813699446818951e+01 -3 0 1
8345 787 58 4.0999999999999998e-01 -1.6543886601888488e+01 -2.4250436008860191e+01 -3.2088606859039650e+01 5 0 1
7861 626 58 4.0999999999999998e-01 -1.4042837729528832e+01 -2.4480296211524060e+01 -3.0732619144943751e+01 5 -4 1
7860 626 57 -8.1999999999999995e-01 -1.4772962667659709e+01 -2.3807204392982360e+01 -3.0614931657918646e+01 5 -4 1
7474 497 58 4.0999999999999998e-01 -1.9437753689668590e+01 -2.4245355200242965e+01 -3.4838125962375123e+01 -3 0 1
7473 497 57 -8.1999999999999995e-01 -1.8567336190542157e+01 -2.4712184141313454e+01 -3.4681824568419110e+01 -3 0 1
13151 2389 58 4.0999999999999998e-01 -1.4932049560101211e+01 -2.2036459318567271e+01 -3.1004686450696020e+01 -1 1 0
11928 1982 57 -8.1999999999999995e-01 -1.7165050128049664e+01 -2.0334296425955600e+01 -3.2531408498452620e+01 -1 -3 0
13582 2533 58 4.0999999999999998e-01 -1.6117739042799979e+01 -2.6773163267334009e+01 -3.5815479576948817e+01 -5 -4 0
8315 777 58 4.0999999999999998e-01 -1.6009023319896535e+01 -2.2557452661128782e+01 -3.3416328496802130e+01 0 0 1
8313 777 57 -8.1999999999999995e-01 -1.5128927393700346e+01 -2.2084746968068899e+01 -3.3460702537770068e+01 0 0 1
13391 2469 58 4.0999999999999998e-01 -1.3762354844940148e+01 -2.0629229948358969e+01 -3.6146074068251679e+01 3 7 0
13389 2469 57 -8.1999999999999995e-01 -1.3711285916858047e+01 -2.0131620842815316e+01 -3.5280179986734922e+01 3 7 0
13390 2469 58 4.0999999999999998e-01 -1.4239692837873992e+01 -2.0617741172122692e+01 -3.4584145575921120e+01 3 7 0
13149 2389 57 -8.1999999999999995e-01 -1.5008778489897342e+01 -2.1039423656756131e+01 -3.1001332570096736e+01 -1 1 0
13150 2389 58 4.0999999999999998e-01 -1.4953185880014942e+01 -2.0703520620730409e+01 -3.0061080440124698e+01 -1 1 0
10395 1471 57 -8.1999999999999995e-01 -1.8376298086086187e+01 -2.1517017658846544e+01 -3.4723558198594333e+01 -1 12 0
10397 1471 58 4.0999999999999998e-01 -1.7886731591111047e+01 -2.1134826123276408e+01 -3.3939817963001047e+01 -1 12 0
7862 626 58 4.0999999999999998e-01 -1.4971282262536278e+01 -2.3696688243067364e+01 -2.9641044871219304e+01 5 -4 1
10242 1420 57 -8.1999999999999995e-01 -1.3225934481522895e+01 -2.6169249838175912e+01 -3.2645054761995027e+01 -5 2 0
9536 1184 58 4.0999999999999998e-01 -1.7691463204445654e+01 -2.4239661760242210e+01 -3.7762645001605883e+01 -6 3 1
10408 1475 58 4.0999999999999998e-01 -2.3550425465496939e+01 -2.1618463574843734e+01 -3.0946676761472929e+01 1 -1 0
10225 1414 58 4.0999999999999998e-01 -2.3227130099262826e+01 -2.1158732617007242e+01 -3.3228763802853372e+01 -11 1 0
10224 1414 57 -8.1999999999999995e-01 -2.2673559002086453e+01 -2.0384785165475979e+01 -3.3536250204786519e+01 -11 1 0
10396 1471 58 4.0999999999999998e-01 -1.9351722842660298e+01 -2.1313390108096723e+01 -3.4639463809706868e+01 -1 12 0
13583 2533 58 4.0999999999999998e-01 -1.7035359376280383e+01 -2.5920408834675968e+01 -3.4767450715968629e+01 -5 -4 0
9843 1287 57 -8.1999999999999995e-01 -2.5525184988704130e+01 -1.9806679121126095e+01 -3.8045521852943125e+01 4 0 1
8923 980 58 4.0999999999999998e-01 -1.6942668715604071e+01 -2.7857503721580734e+01 -2.9769084784244896e+01 6 -9 1
7833 617 57 -8.1999999999999995e-01 -2.4773304045276351e+01 -2.2044653176319589e+01 -3.6816996106075287e+01 -4 0 1
7835 617 58 4.0999999999999998e-01 -2.5191902626190295e+01 -2.1295921697695160e+01 -3.7330960138210550e+01 -4 0 1
11929 1982 58 4.0999999999999998e-01 -1.7779761791178103e+01 -1.9674802695812360e+01 -3.2098760154413618e+01 -1 -3 0
11930 1982 58 4.0999999999999998e-01 -1.6428147118137730e+01 -2.0569367734017302e+01 -3.1897602883336731e+01 -1 -3 0
10244 1420 58 4.0999999999999998e-01 -1.4089258952004773e+01 -2.6648819803755874e+01 -3.2487977610437142e+01 -5 2 0
13568 2528 58 4.0999999999999998e-01 -2.2508635340555792e+01 -2.3967239639760539e+01 -3.3137216800794064e+01 -2 -2 0
9453 1157 57 -8.1999999999999995e-01 -1.3769629987624427e+01 -2.4433140723357706e+01 -3.7642933017146646e+01 0 2 1
9455 1157 58 4.0999999999999998e-01 -1.4071977120828160e+01 -2.4274180247368466e+01 -3.6703085060787046e+01 0 2 1
6979 332 58 4.0999999999999998e-01 -1.9175788217414858e+01 -2.7071515670171525e+01 -3.4786730327449725e+01 -1 -1 1
8951 989 58 4.0999999999999998e-01 -2.3017594720402453e+01 -2.6931320736883322e+01 -3.5990985141689194e+01 3 -6 1
12010 2009 58 4.0999999999999998e-01 -1.7394534004304447e+01 -2.1057011797706622e+01 -3.6818516092723570e+01 -8 -5 0
12259 2092 58 4.0999999999999998e-01 -2.5029709619000197e+01 -2.0290342434245108e+01 -3.3148947486256759e+01 -3 8 0
12009 2009 57 -8.1999999999999995e-01 -1.6828017191111094e+01 -2.1144774234117683e+01 -3.7637876973073524e+01 -8 -5 0
13227 2415 57 -8.1999999999999995e-01 -1.7461489473762953e+01 -2.4751373033486427e+01 -2.8959223262793493e+01 -1 1 0
13228 2415 58 4.0999999999999998e-01 -1.7502966673824403e+01 -2.5513578271664294e+01 -2.9605216674204648e+01 -1 1 0
13566 2528 57 -8.1999999999999995e-01 -2.2254353056417344e+01 -2.4468411189317585e+01 -3.2310076702373557e+01 -2 -2 0
7834 617 58 4.0999999999999998e-01 -2.3871860721816230e+01 -2.2248602644922780e+01 -3.7198828038356105e+01 -4 0 1
13567 2528 58 4.0999999999999998e-01 -2.2075659513913045e+01 -2.5424829647740186e+01 -3.2540963930744624e+01 -2 -2 0
7351 456 58 4.0999999999999998e-01 -2.2100806032687274e+01 -2.0673900094942034e+01 -3.6918202938661686e+01 -1 4 1
8185 734 58 4.0999999999999998e-01 -1.3810164211602801e+01 -2.2399847457547725e+01 -3.8085378633947457e+01 -1 -2 1
12755 2257 58 4.0999999999999998e-01 -2.2675288272862772e+01 -2.7843661514073613e+01 -3.3657059914274924e+01 1 1 0
6391 136 58 4.0999999999999998e-01 -2.0165135465028293e+01 -1.9026930614846147e+01 -3.5760983787820329e+01 -6 5 1
9454 1157 58 4.0999999999999998e-01 -1.3039802267840955e+01 -2.5116742007696853e+01 -3.7647694107537724e+01 0 2 1
12011 2009 58 4.0999999999999998e-01 -1.6941057248563833e+01 -2.0332734050088646e+01 -3.8210411185463613e+01 -8 -5 0
6980 332 58 4.0999999999999998e-01 -2.0143709650238094e+01 -2.7720537134477130e+01 -3.3642401535181484e+01 -1 -1 1
6978 332 57 -8.1999999999999995e-01 -1.9715747386282846e+01 -2.7874059300639882e+01 -3.4533061136242267e+01 -1 -1 1
11258 1758 58 4.0999999999999998e-01 -1.6046898133771627e+01 -2.7082619428815253e+01 -3.3324768734521577e+01 -2 3 0
10226 1414 58 4.0999999999999998e-01 -2.1745513862638564e+01 -2.0473566967632493e+01 -3.3174530725910927e+01 -11 1 0
11453 1823 58 4.0999999999999998e-01 -2.2231532274351977e+01 -1.8656113713574896e+01 -2.9152793573116924e+01 7 3 0
8924 980 58 4.0999999999999998e-01 -1.6240929290025932e+01 -2.7184924635931523e+01 -3.1081636635160283e+01 6 -9 1
12754 2257 58 4.0999999999999998e-01 -2.2483168657603649e+01 -2.7731185707648443e+01 -3.2039022273745090e+01 1 1 0
9731 1249 58 4.0999999999999998e-01 -1.4819129095144859e+01 -2.7518599948599896e+01 -3.6604431306215787e+01 7 -1 1
8922 980 57 -8.1999999999999995e-01 -1.6483689046932568e+01 -2.7042213522242612e+01 -3.0122105481979055e+01 6 -9 1
9401 1139 58 4.0999999999999998e-01 -1.6585434349589946e+01 -2.6412066142380613e+01 -3.8271117178016830e+01 8 4 1
8635 884 58 4.0999999999999998e-01 -1.3087681591173025e+01 -1.9039317358206983e+01 -3.8387625925705663e+01 3 -7 1
9399 1139 57 -8.1999999999999995e-01 -1.6052953761368517e+01 -2.6002727780544721e+01 -3.7530240757192075e+01 8 4 1
12753 2257 57 -8.1999999999999995e-01 -2.2348668247040397e+01 -2.7262209419676626e+01 -3.2911928086267558e+01 1 1 0
8184 734 57 -8.1999999999999995e-01 -1.4137472182993985e+01 -2.1568775799836921e+01 -3.7635746051259069e+01 -1 -2 1
13888 2635 58 4.0999999999999998e-01 -2.5155237856014761e+01 -2.6614184807393404e+01 -3.5864452747922705e+01 2 -4 0
11256 1758 57 -8.1999999999999995e-01 -1.5472260801514526e+01 -2.7459042964661805e+01 -3.2598070784816045e+01 -2 3 0
8186 734 58 4.0999999999999998e-01 -1.5114397550579435e+01 -2.1454325975024233e+01 -3.7816050178053807e+01 -1 -2 1
7914 644 57 -8.1999999999999995e-01 -2.2548021220076986e+01 -2.2397799429282991e+01 -3.8346919026810909e+01 4 0 1
9400 1139 58 4.0999999999999998e-01 -1.5396196907867424e+01 -2.5351977084741506e+01 -3.7911263414225367e+01 8 4 1
7916 644 58 4.0999999999999998e-01 -2.2335480681327233e+01 -2.3372638266683612e+01 -3.8413956577860169e+01 4 0 1
8040 686 57 -8.1999999999999995e-01 -2.2188759139002990e+01 -2.5401250557515027e+01 -3.8452711244373901e+01 1 10 1
8097 705 57 -8.1999999999999995e-01 -9.4419188356628183e+00 -2.7360574406089594e+01 -3.4917056111743875e+01 -13 4 1
7775 597 58 4.0999999999999998e-01 -8.8701681575302871e+00 -2.7609274424754375e+01 -3.6683516649355411e+01 15 0 1
12782 2266 58 4.0999999999999998e-01 -7.6093582952474677e+00 -2.7410090486966379e+01 -3.0310538137096998e+01 1 1 0
11760 1926 57 -8.1999999999999995e-01 -2.3126432031338240e+00 -2.7936855999768760e+01 -3.7026216343202911e+01 0 -2 0
11883 1967 57 -8.1999999999999995e-01 -3.4350630956329908e-01 -2.4183822795132279e+01 -3.5843936185806356e+01 -2 9 0
9274 1097 58 4.0999999999999998e-01 -2.6115002632718429e+00 -2.6665279333443475e+01 -3.5331952365934569e+01 -3 3 1
10243 1420 58 4.0999999999999998e-01 -1.2841266654704064e+01 -2.5878724213406105e+01 -3.1768912092548845e+01 -5 2 0
11727 1915 57 -8.1999999999999995e-01 -1.1177090190519259e+00 -2.0096741775216042e+01 -3.1474104500478223e+01 -6 6 0
11871 1963 57 -8.1999999999999995e-01 -8.6265034307213639e-01 -2.5436956615798053e+01 -2.9845686910586501e+01 10 7 0
11270 1762 58 4.0999999999999998e-01 -1.1898565560240586e+01 -1.9439762326866919e+01 -3.5841303758625145e+01 7 12 0
12833 2283 58 4.0999999999999998e-01 -1.1527569183900518e+01 -2.5602276415010703e+01 -2.9852371220454785e+01 -4 8 0
12831 2283 57 -8.1999999999999995e-01 -1.2429365941818807e+01 -2.5756244761346778e+01 -3.0256162362757777e+01 -4 8 0
13294 2437 58 4.0999999999999998e-01 -1.0864822188025999e+01 -2.2134324567842416e+01 -3.5999616631795512e+01 -13 6 0
12832 2283 58 4.0999999999999998e-01 -1.2998218659062911e+01 -2.6272158718079716e+01 -2.9615669218103704e+01 -4 8 0
6831 283 57 -8.1999999999999995e-01 -1.1655121679294631e+01 -2.2151918805034938e+01 -3.0313596823648652e+01 -11 -3 1
6833 283 58 4.0999999999999998e-01 -1.1775243424801330e+01 -2.2305535174865295e+01 -2.9332796005103525e+01 -11 -3 1
6832 283 58 4.0999999999999998e-01 -1.2541756521713998e+01 -2.2212697663232028e+01 -3.0772046094445436e+01 -11 -3 1
13295 2437 58 4.0999999999999998e-01 -1.2318746028163591e+01 -2.2844387269519085e+01 -3.5777140591375918e+01 -13 6 0
13293 2437 57 -8.1999999999999995e-01 -1.1330538105644408e+01 -2.2956898417926688e+01 -3.5673332595466150e+01 -13 6 0
13115 2377 58 4.0999999999999998e-01 -4.3140927070190962e+00 -2.3480026271622364e+01 -3.3560356887729078e+01 -1 1 0
7979 665 58 4.0999999999999998e-01 -6.4612233592053805e+00 -2.2483326623989385e+01 -3.5282706831828555e+01 5 7 1
9724 1247 58 4.0999999999999998e-01 -6.1763902042335097e+00 -2.2742498075793314e+01 -3.1729984931346824e+01 3 6 1
9725 1247 58 4.0999999999999998e-01 -7.1522604221187329e+00 -2.1589509934065958e+01 -3.2351163518606910e+01 3 6 1
13114 2377 58 4.0999999999999998e-01 -3.3461945614243831e+00 -2.3492631742288332e+01 -3.2244829542833060e+01 -1 1 0
13113 2377 57 -8.1999999999999995e-01 -3.4326329051444624e+00 -2.3782758888063402e+01 -3.3197904155364377e+01 -1 1 0
7438 485 58 4.0999999999999998e-01 -6.5610238249583404e+00 -2.7543952310550470e+01 -3.3615227595849525e+01 3 1 1
9938 1318 58 4.0999999999999998e-01 -7.4004716598149862e+00 -2.3769048875202920e+01 -3.3348974273306808e+01 13 10 1
9936 1318 57 -8.1999999999999995e-01 -7.7788516776442265e+00 -2.3205715922165687e+01 -3.4083464592885427e+01 13 10 1
9937 1318 58 4.0999999999999998e-01 -8.7361084272205218e+00 -2.3452587287990340e+01 -3.4234140539442365e+01 13 10 1
9904 1307 58 4.0999999999999998e-01 -1.0175601461689913e+01 -2.2599441404093550e+01 -3.1113171801428440e+01 -5 0 1
9903 1307 57 -8.1999999999999995e-01 -9.2416731934152274e+00 -2.2659938408391866e+01 -3.1465464631413695e+01 -5 0 1
9905 1307 58 4.0999999999999998e-01 -8.9935529305372626e+00 -2.1795955771391487e+01 -3.1903585031520830e+01 -5 0 1
7437 485 57 -8.1999999999999995e-01 -5.9517636967428693e+00 -2.6811598885551263e+01 -3.3919270615078155e+01 3 1 1
7439 485 58 4.0999999999999998e-01 -5.0649191313889439e+00 -2.6905788629587921e+01 -3.3466914707340216e+01 3 1 1
11975 1997 58 4.0999999999999998e-01 -9.5149257992050913e+00 -2.4362692512087406e+01 -3.0581941305420766e+01 -2 0 0
11169 1729 57 -8.1999999999999995e-01 -6.1233260558396374e+00 -2.4556050296301336e+01 -3.1058461221791575e+01 1 3 0
11170 1729 58 4.0999999999999998e-01 -6.1814244309755182e+00 -2.4396700935930305e+01 -3.0072951061000698e+01 1 3 0
9213 1077 57 -8.1999999999999995e-01 -8.6097897734796440e+00 -2.0203773741162067e+01 -3.2349279148582603e+01 -13 0 1
9215 1077 58 4.0999999999999998e-01 -8.9574310531507848e+00 -1.9807826742525819e+01 -3.3199202086619863e+01 -13 0 1
11171 1729 58 4.0999999999999998e-01 -5.6072360272568069e+00 -2.5394994073420296e+01 -3.1231095289456707e+01 1 3 0
9820 1279 58 4.0999999999999998e-01 -8.3563380550318556e-01 -2.1859042289054983e+01 -3.3494985292319058e+01 -1 5 1
8074 697 58 4.0999999999999998e-01 -6.9980202164382028e+00 -1.9654255216228322e+01 -3.6502572256884875e+01 -4 -3 1
6679 232 58 4.0999999999999998e-01 -6.7926750293434104e+00 -2.2748746017115899e+01 -3.7828278876625959e+01 -7 5 1
12038 2018 58 4.0999999999999998e-01 -3.8325003429024882e+00 -2.5475975719713031e+01 -3.1770839134553114e+01 0 -2 0
7978 665 58 4.0999999999999998e-01 -5.3398068130646799e+00 -2.1649711192389280e+01 -3.6128341942625298e+01 5 7 1
7977 665 57 -8.1999999999999995e-01 -6.0941657480234959e+00 -2.2302752378707130e+01 -3.6195208340100137e+01 5 7 1
9723 1247 57 -8.1999999999999995e-01 -6.2026276824825892e+00 -2.1844290292932588e+01 -3.2168748812299199e+01 3 6 1
12781 2266 58 4.0999999999999998e-01 -8.8620785162724474e+00 -2.6622670823571731e+01 -3.1002090069274061e+01 1 1 0
9214 1077 58 4.0999999999999998e-01 -7.8983711510882308e+00 -1.9611212263449708e+01 -3.1971468002004887e+01 -13 0 1
12036 2018 57 -8.1999999999999995e-01 -4.0658641472816441e+00 -2.6419966188008541e+01 -3.1537600388344543e+01 0 -2 0
12903 2307 57 -8.1999999999999995e-01 -1.0863893245842039e+01 -2.5147245564752513e+01 -3.4361733549499547e+01 3 -2 0
10460 1492 58 4.0999999999999998e-01 -2.0700430734322133e+00 -2.4350009957189627e+01 -3.0277701149799537e+01 2 3 0
9571 1196 58 4.0999999999999998e-01 -3.4442452479563812e+00 -2.1299618614986450e+01 -2.9721903700854803e+01 5 0 1
9570 1196 57 -8.1999999999999995e-01 -3.5770404810987593e+00 -2.0415503949194719e+01 -3.0169884515296637e+01 5 0 1
10458 1492 57 -8.1999999999999995e-01 -2.8641761960507424e+00 -2.3837446541994861e+01 -3.0604230695210795e+01 2 3 0
12904 2307 58 4.0999999999999998e-01 -1.1752294837273936e+01 -2.5484906854621691e+01 -3.4050741164820217e+01 3 -2 0
8073 697 57 -8.1999999999999995e-01 -7.3718256721502193e+00 -1.9769563809281273e+01 -3.7422882043461428e+01 -4 -3 1
12905 2307 58 4.0999999999999998e-01 -1.0969855916565583e+01 -2.4227134290707777e+01 -3.4738753424096330e+01 3 -2 0
8075 697 58 4.0999999999999998e-01 -6.6259452737548123e+00 -1.9936991174470990e+01 -3.8067571715933774e+01 -4 -3 1
7605 541 57 -8.1999999999999995e-01 -9.3468683890270867e+00 -2.1258389707195800e+01 -3.6648974370652404e+01 1 6 1
9821 1279 58 4.0999999999999998e-01 -1.8306364556694135e+00 -2.3147532686520421e+01 -3.3626598168063339e+01 -1 5 1
9819 1279 57 -8.1999999999999995e-01 -8.7616340727007724e-01 -2.2855786801981274e+01 -3.3564494464019688e+01 -1 5 1
10459 1492 58 4.0999999999999998e-01 -3.3669302199077471e+00 -2.3467460417484258e+01 -2.9822985751315088e+01 2 3 0
10841 1619 58 4.0999999999999998e-01 -2.5521701970242781e+00 -2.6182463357004025e+01 -3.7697451108404287e+01 -6 -4 0
10364 1460 58 4.0999999999999998e-01 -1.5937490828726411e+00 -1.9965606889282860e+01 -3.7089964745949182e+01 -3 1 0
6560 192 58 4.0999999999999998e-01 -3.9470095444481039e+00 -1.9863490818185983e+01 -3.5723368462016737e+01 -2 6 1
8614 877 58 4.0999999999999998e-01 -1.2899193888778282e+01 -1.9567747996971633e+01 -2.9958305851783557e+01 -11 5 1
6559 192 58 4.0999999999999998e-01 -3.3767716263583161e+00 -2.0538942915166061e+01 -3.7096753483031584e+01 -2 6 1
6558 192 57 -8.1999999999999995e-01 -3.9515652598110940e+00 -2.0686188373018922e+01 -3.6291814552468097e+01 -2 6 1
8385 801 57 -8.1999999999999995e-01 -5.8628372236346351e+00 -1.9177386857923942e+01 -3.1525956502311445e+01 0 -3 1
8387 801 58 4.0999999999999998e-01 -5.7990411038842815e+00 -2.0146057068763888e+01 -3.1765929301086690e+01 0 -3 1
9572 1196 58 4.0999999999999998e-01 -3.0109205933167438e+00 -2.0369958426361769e+01 -3.0992944973666983e+01 5 0 1
12346 2121 58 4.0999999999999998e-01 -5.6336269328657522e+00 -2.4167078857074081e+01 -3.6292879728507032e+01 -4 -8 0
10363 1460 58 4.0999999999999998e-01 -1.4056804947793040e+00 -1.8931871954148509e+01 -3.8340407880074686e+01 -3 1 0
10362 1460 57 -8.1999999999999995e-01 -1.9740445043056027e+00 -1.9663548484807087e+01 -3.7964112254150002e+01 -3 1 0
9275 1097 58 4.0999999999999998e-01 -2.7353280475489079e+00 -2.5412099333232618e+01 -3.4291867989510266e+01 -3 3 1
12345 2121 57 -8.1999999999999995e-01 -5.1887816771017690e+00 -2.5027014819345126e+01 -3.6042678159492354e+01 -4 -8 0
9273 1097 57 -8.1999999999999995e-01 -2.4596774397386980e+00 -2.6368405271356064e+01 -3.4389184910318200e+01 -3 3 1
11973 1997 57 -8.1999999999999995e-01 -9.5797448837034942e+00 -2.4875933077855148e+01 -2.9726152066324598e+01 -2 0 0
11974 1997 58 4.0999999999999998e-01 -8.9819232545024938e+00 -2.4459595988487170e+01 -2.9041123036409410e+01 -2 0 0
3408 64 15 4.0000000000000002e-01 -7.1498825236649717e+00 -2.1346067669188411e+01 -2.8925168371944611e+01 0 0 0
8099 705 58 4.0999999999999998e-01 -8.7158431385397463e+00 -2.7683646617398388e+01 -3.4310072299003707e+01 -13 4 1
11872 1963 58 4.0999999999999998e-01 -1.3001651855315082e+00 -2.6315188674207477e+01 -3.0038748307675370e+01 10 7 0
7370 462 58 4.0999999999999998e-01 -1.0749555503978334e+01 -2.5440221443462384e+01 -3.7793252337147514e+01 3 0 1
7369 462 58 4.0999999999999998e-01 -1.1361681401177082e+01 -2.6905109178542226e+01 -3.7409900078692893e+01 3 0 1
7607 541 58 4.0999999999999998e-01 -8.7886064660954233e+00 -2.1650865002643982e+01 -3.5918016055077629e+01 1 6 1
7606 541 58 4.0999999999999998e-01 -8.7724116109088790e+00 -2.0692859160264646e+01 -3.7240720029650710e+01 1 6 1
11873 1963 58 4.0999999999999998e-01 -2.2749123370626378e-01 -2.5541520889569941e+01 -2.9080420004852986e+01 10 7 0
10839 1619 57 -8.1999999999999995e-01 -2.7585817976059843e+00 -2.5217516804390101e+01 -3.7535436960852060e+01 -6 -4 0
11729 1915 58 4.0999999999999998e-01 -8.2286787595786492e-01 -2.0084451006876197e+01 -3.0518636917620292e+01 -6 6 0
8300 772 58 4.0999999999999998e-01 -4.6886495715719256e+00 -2.2174546790280491e+01 -3.8305402189504036e+01 7 9 1
11268 1762 57 -8.1999999999999995e-01 -1.1551745969782283e+01 -1.8931145207607670e+01 -3.6629349424785019e+01 7 12 0
11885 1967 58 4.0999999999999998e-01 -5.0697747437989804e-01 -2.3787651537199896e+01 -3.4940430897912194e+01 -2 9 0
6542 186 58 4.0999999999999998e-01 -1.0461212542943127e+01 -1.9027210294368562e+01 -3.7984389362645288e+01 -1 -4 1
12780 2266 57 -8.1999999999999995e-01 -8.4425338766438820e+00 -2.7518049547759372e+01 -3.0852903524630790e+01 1 1 0
10631 1549 58 4.0999999999999998e-01 -9.2829132160590149e+00 -1.9872721656516180e+01 -3.5595707698723601e+01 0 4 0
10629 1549 57 -8.1999999999999995e-01 -9.0261090522307725e+00 -1.9181775440666335e+01 -3.4919962559274019e+01 0 4 0
8386 801 58 4.0999999999999998e-01 -5.1207495268143006e+00 -1.8939131257759428e+01 -3.0899431692510728e+01 0 -3 1
12550 2189 58 4.0999999999999998e-01 -2.2776484334923524e+00 -1.9100450144662350e+01 -3.2310830172124199e+01 0 -5 0
10840 1619 58 4.0999999999999998e-01 -3.4801151775177956e+00 -2.5141479783585588e+01 -3.6847248199414388e+01 -6 -4 0
12347 2121 58 4.0999999999999998e-01 -5.7329152922827618e+00 -2.5493827834876956e+01 -3.5345544854779106e+01 -4 -8 0
13411 2476 58 4.0999999999999998e-01 -8.2514055061876554e+00 -2.6165200992427593e+01 -3.8078912801819541e+01 -2 -3 0
11909 1975 58 4.0999999999999998e-01 -5.4822467225713751e+00 -2.7278156706959308e+01 -2.9249361699978969e+01 7 11 0
12037 2018 58 4.0999999999999998e-01 -3.2942417003937408e+00 -2.6848087384947366e+01 -3.1067172884565952e+01 0 -2 0
7773 597 57 -8.1999999999999995e-01 -8.0430604826576086e+00 -2.7770224770614636e+01 -3.7222017368599616e+01 15 0 1
11884 1967 58 4.0999999999999998e-01 -1.1739014522401696e+00 -2.4109677622558831e+01 -3.6396148242861720e+01 -2 9 0
8098 705 58 4.0999999999999998e-01 -9.8333591712985360e+00 -2.6516894207428351e+01 -3.4549684481831648e+01 -13 4 1
7368 462 57 -8.1999999999999995e-01 -1.1488743195762328e+01 -2.6089072396897773e+01 -3.7973744749058454e+01 3 0 1
11907 1975 57 -8.1999999999999995e-01 -6.1465252244262061e+00 -2.7888516213998777e+01 -2.9680849651729822e+01 7 11 0
6597 205 57 -8.1999999999999995e-01 -2.0197549192091486e+00 -2.7766817332591952e+01 -3.0309132317283346e+01 -7 4 1
11728 1915 58 4.0999999999999998e-01 -3.1718195506212865e-01 -2.0163787512343877e+01 -3.2069634243664844e+01 -6 6 0
8084 700 58 4.0999999999999998e-01 -5.2118225727033973e-01 -2.5570237267503270e+01 -3.7898260045902873e+01 -1 0 1
8561 859 58 4.0999999999999998e-01 -8.2449315485986574e-01 -2.6860267333666101e+01 -3.4005787891259224e+01 -1 7 1
9872 1296 58 4.0999999999999998e-01 -1.4359802703401314e-01 -2.1714021675847466e+01 -3.5961960864297104e+01 2 -2 1
9870 1296 57 -8.1999999999999995e-01 -1.2209431265985415e-01 -2.0714466139520191e+01 -3.5941970335169735e+01 2 -2 1
7774 597 58 4.0999999999999998e-01 -7.2474991475146311e+00 -2.7782503883585381e+01 -3.6616273112760410e+01 15 0 1
13412 2476 58 4.0999999999999998e-01 -8.0286917571899856e+00 -2.4582135409513548e+01 -3.8413351430826935e+01 -2 -3 0
12674 2230 58 4.0999999999999998e-01 -2.2998836316121022e+01 -1.8501636991205132e+01 -3.4033294689600297e+01 1 -1 0
9057 1025 57 -8.1999999999999995e-01 -2.4502805045310925e+01 -1.6878124769545536e+01 -3.0778744415065646e+01 5 3 1
9058 1025 58 4.0999999999999998e-01 -2.4877262825312339e+01 -1.7383365667050143e+01 -3.0001245889112155e+01 5 3 1
11428 1815 58 4.0999999999999998e-01 -1.9961572702404830e+01 -1.2128503331662641e+01 -3.7591743816275496e+01 5 -3 0
13475 2497 58 4.0999999999999998e-01 -1.3995793549306006e+01 -1.7148674933219382e+01 -3.3821472796705223e+01 -3 -2 0
13474 2497 58 4.0999999999999998e-01 -1.4053771348917117e+01 -1.8429464395989314e+01 -3.4833295773303441e+01 -3 -2 0
7852 623 58 4.0999999999999998e-01 -2.5529338131399005e+01 -1.4008951692922968e+01 -3.8447173777282941e+01 2 0 1
9333 1117 57 -8.1999999999999995e-01 -2.2087059128407201e+01 -1.7885374285373295e+01 -3.8191571255322550e+01 4 4 1
7853 623 58 4.0999999999999998e-01 -2.5167647027194018e+01 -1.3107997073275785e+01 -3.7133763627269033e+01 2 0 1
12693 2237 57 -8.1999999999999995e-01 -2.0162177777676629e+01 -1.5243263398655387e+01 -3.6526813009171157e+01 2 -3 0
12672 2230 57 -8.1999999999999995e-01 -2.3579405310827280e+01 -1.7687984739659321e+01 -3.4063122766961172e+01 1 -1 0
12673 2230 58 4.0999999999999998e-01 -2.4514173712821972e+01 -1.7935372514897775e+01 -3.3808178205207014e+01 1 -1 0
8023 680 58 4.0999999999999998e-01 -1.4894161107086752e+01 -1.6526005176845040e+01 -3.2029131682019241e+01 3 2 1
12694 2237 58 4.0999999999999998e-01 -1.9920470296692265e+01 -1.5456256657936724e+01 -3.5580129849349412e+01 2 -3 0
13197 2405 57 -8.1999999999999995e-01 -1.9659786254824674e+01 -1.5192405004249496e+01 -3.3976194839830740e+01 6 5 0
13198 2405 58 4.0999999999999998e-01 -1.9942864973063941e+01 -1.5171576316045185e+01 -3.3017325108951120e+01 6 5 0