LAMMPS data file via write_data, version 5 Oct 2015, timestep = 100000

14048 atoms
58 atom types
11360 bonds
54 bond types
9680 angles
55 angle types
5536 dihedrals
43 dihedral types
336 impropers
3 improper types

-2.5850098325735171e+01 2.5850098325735171e+01 xlo xhi
-2.8300540664590159e+01 2.8300540664590159e+01 ylo yhi
-3.8330110631052406e+01 3.8330110631052406e+01 zlo zhi

Masses

1 15.9994
2 15.9994
3 15.9994
4 15.9994
5 15.9994
6 14.0067
7 14.0067
8 14.0067
9 14.0067
10 14.0067
11 14.0067
12 12.011
13 12.011
14 13.019
15 14.027
16 15.035
17 16.043
18 14.027
19 13.019
20 1.008
21 1.008
22 999
23 32.06
24 63.546
25 63.546
26 55.847
27 65.37
28 24.305
29 40.08
30 30.9738
31 39.948
32 18.9984
33 35.453
34 79.904
35 15.035
36 15.9994
37 22.9898
38 35.453
39 12.011
40 35.453
41 1.008
42 32.06
43 15.035
44 15.9994
45 12.011
46 35.453
47 18.9984
48 12.011
49 14.027
50 15.9994
51 12.011
52 15.9994
53 14.0067
54 28.08
55 999
56 999
57 15.994
58 1.008

Pair Coeffs # lj/cut/coul/long/gpu

1 0.30699 2.7601
2 0.41401 2.6259
3 0.25371 2.8492
4 0.25371 2.8492
5 0.15604 3.1656
6 0.15355 3.1365
7 0.15355 3.1365
8 0.15355 3.1365
9 0.15355 3.1365
10 0.15355 3.1365
11 0.15355 3.1365
12 0.066577 3.5812
13 0.0016789 6.6395
14 0.022773 5.0192
15 0.09853 4.0704
16 0.20812 3.7479
17 0.30682 3.7028
18 0.11503 3.9547
19 0.14617 3.6818
20 0.028411 2.3734
21 0 0
22 0 0
23 0.039532 2.309
24 0 0
25 0 1
26 0 0
27 0 0
28 0 0
29 0 0
30 0.58722 3.3856
31 0 0
32 0 0
33 0 0
34 0 0
35 0 0
36 0 0
37 0 0
38 0 0
39 0 0
40 0 0
41 0 0
42 0 0
43 0 0
44 0 0
45 0 0
46 0 0
47 0 0
48 0 0
49 0 0
50 0 0
51 0 0
52 0 0
53 0 0
54 0 0
55 0 0
56 0 0
57 0.15543 3.1655
58 0 0

Bond Coeffs # harmonic

1 375.23 1
2 446.93 1
3 349.266 1.09
4 1109.27 1.12
5 600.228 1.23
6 500.406 1.25
7 499.72 1.32
8 374.994 1.33
9 448.133 1.33
10 498.865 1.33
11 450.606 1.34
12 502.104 1.34
13 450.896 1.36
14 500.667 1.38
15 399.894 1.39
16 498.714 1.39
17 400.048 1.4
18 399.782 1.43
19 450.121 1.43
20 300.214 1.435
21 449.832 1.47
22 299.969 1.48
23 399.958 1.48
24 450.215 1.48
25 450.097 1.5
26 299.837 1.52
27 400.025 1.53
28 299.844 1.61
29 299.72 1.63
30 205.971 1.78
31 449.805 1.78
32 449.818 1.83
33 300.038 1.87
34 59.9664 1.98
35 60.0368 2
36 500.295 2.04
37 63.0342 2.21
38 554.48 1
39 349.92 1.1
40 599.78 1.758
41 449.818 1.53
42 444.33 1.938
43 599.664 1.76
44 501.014 1.265
45 448.645 1.35
46 555.115 1.633
47 350.241 2.3384
48 600.147 2.9028
49 445.873 2.7939
50 443.805 2.9119
51 409.318 2.077
52 600.159 2.8741
53 527.1 1
54 629.318 0.94

Improper Coeffs # harmonic

1 20.0071 0
2 40.0141 35.2644
3 80.0282 0

Atoms # full

8227 748 58 4.0999999999999998e-01 -2.2452719048217034e+01 -2.5787649501448460e+01 -3.4909609596201896e+01 -3 0 1
9132 1050 57 -8.1999999999999995e-01 -2.3256527354562557e+00 -1.6288582515926812e+01 -3.7900768544544889e+01 -6 -6 1
8345 787 58 4.0999999999999998e-01 -2.5361145609801994e+01 -2.2575727968958645e+01 -2.9520083118071000e+01 5 0 1
8816 944 58 4.0999999999999998e-01 -2.0670771269940211e+01 -2.5105442308212552e+01 -2.9804789786034195e+01 -7 0 1
8814 944 57 -8.1999999999999995e-01 -2.0801039178509257e+01 -2.4623304140191912e+01 -3.0671141489379117e+01 -7 0 1
8815 944 58 4.0999999999999998e-01 -2.1771536338361393e+01 -2.4626362952518200e+01 -3.0912213480215812e+01 -7 0 1
8439 819 57 -8.1999999999999995e-01 -2.5602811256643626e+01 -4.0999611920019454e+00 -3.8021306376444223e+01 8 4 1
12033 2017 57 -8.1999999999999995e-01 -2.4105689094372860e+01 -1.9185006625241432e+01 -3.0617977990142116e+01 4 3 0
11309 1775 58 4.0999999999999998e-01 -1.9830360399536122e+01 -2.3239898531490319e+01 -3.0942053732318630e+01 3 -6 0
12035 2017 58 4.0999999999999998e-01 -2.3714472947599347e+01 -1.8268466269129974e+01 -3.0701097995708786e+01 4 3 0
6688 235 58 4.0999999999999998e-01 -2.4384778002434324e+01 -2.4338438554494367e+01 -3.1404186357097839e+01 -2 9 1
6689 235 58 4.0999999999999998e-01 -2.3633008417367332e+01 -2.5788377956645018e+01 -3.1392242934367594e+01 -2 9 1
6687 235 57 -8.1999999999999995e-01 -2.3508508628735274e+01 -2.4805002404095770e+01 -3.1524453575990510e+01 -2 9 1
11307 1775 57 -8.1999999999999995e-01 -1.9335816390933960e+01 -2.2434894102994591e+01 -3.1269765515667785e+01 3 -6 0
11308 1775 58 4.0999999999999998e-01 -1.9963752411101936e+01 -2.1837542345076866e+01 -3.1768627820681349e+01 3 -6 0
8226 748 57 -8.1999999999999995e-01 -2.3436600369858287e+01 -2.5893503119115692e+01 -3.4765517213472791e+01 -3 0 1
9076 1031 58 4.0999999999999998e-01 -2.1977645470565019e+01 -2.1487516469976569e+01 -3.3008604384557010e+01 -1 -6 1
11026 1681 58 4.0999999999999998e-01 -2.0830430044837517e+01 -2.5305456114256838e+01 -3.3830814005440601e+01 4 3 0
11025 1681 57 -8.1999999999999995e-01 -2.0832332014657592e+01 -2.4992879924679883e+01 -3.4780699168401959e+01 4 3 0
10306 1441 58 4.0999999999999998e-01 -2.3111150251693125e+01 -2.3465299784849091e+01 -3.2835835494107833e+01 0 4 0
10305 1441 57 -8.1999999999999995e-01 -2.3215948091383797e+01 -2.2562052533280358e+01 -3.3251968418583843e+01 0 4 0
9077 1031 58 4.0999999999999998e-01 -2.0773414826767038e+01 -2.0605302847652709e+01 -3.3671271331740400e+01 -1 -6 1
9075 1031 57 -8.1999999999999995e-01 -2.1139582914595795e+01 -2.0976360198373097e+01 -3.2817908509969683e+01 -1 -6 1
12824 2280 58 4.0999999999999998e-01 -2.0229001878135922e+01 -2.5719595849020461e+01 -3.1905561505460668e+01 5 1 0
12822 2280 57 -8.1999999999999995e-01 -1.9703347323522681e+01 -2.6188197597589525e+01 -3.2615556135425251e+01 5 1 0
8299 772 58 4.0999999999999998e-01 -2.4604572585627423e+01 -2.2782112192571354e+01 -3.6643288034192679e+01 7 9 1
8300 772 58 4.0999999999999998e-01 -2.3719511863348860e+01 -2.1587129834265504e+01 -3.5967789951606086e+01 7 9 1
9904 1307 58 4.0999999999999998e-01 -2.2443571707781416e+01 -2.3244616104111952e+01 -3.7182246938586395e+01 -5 0 1
8228 748 58 4.0999999999999998e-01 -2.3599003299218683e+01 -2.6600498937287291e+01 -3.4077200248505306e+01 -3 0 1
11704 1907 58 4.0999999999999998e-01 -2.5111837704845129e+01 -2.5629421408035917e+01 -3.4871474471407829e+01 1 4 0
9903 1307 57 -8.1999999999999995e-01 -2.1673083775521988e+01 -2.3864710397862261e+01 -3.7329992412190727e+01 -5 0 1
9627 1215 57 -8.1999999999999995e-01 -1.5526654997510839e+01 -2.8264525823480607e+01 -3.1800001878622325e+01 -2 6 1
10307 1441 58 4.0999999999999998e-01 -2.3648859385081696e+01 -2.2655769836697502e+01 -3.4148513966669768e+01 0 4 0
10705 1574 58 4.0999999999999998e-01 -2.2349479957525801e+01 -1.9878798774321378e+01 -3.0153850903259155e+01 8 -3 0
10704 1574 57 -8.1999999999999995e-01 -2.1372811357706517e+01 -1.9881057637832402e+01 -3.0368569864406414e+01 8 -3 0
13182 2400 57 -8.1999999999999995e-01 -1.9005538288196181e+01 -2.1361235419956806e+01 -3.6265478526391398e+01 -5 -7 0
10280 1432 58 4.0999999999999998e-01 -2.3957445155018476e+01 -6.8434035131447963e+00 -3.8314454925871367e+01 -9 -1 0
8298 772 57 -8.1999999999999995e-01 -2.3915492710407257e+01 -2.2567599419904266e+01 -3.5951085938565086e+01 7 9 1
9905 1307 58 4.0999999999999998e-01 -2.1391800065795969e+01 -2.4261684363240182e+01 -3.6456331797919169e+01 -5 0 1
11027 1681 58 4.0999999999999998e-01 -1.9890566121912947e+01 -2.4868017027904589e+01 -3.5092911146082763e+01 4 3 0
10227 1415 57 -8.1999999999999995e-01 -1.2458232688461413e+01 -6.4970424448398134e-01 -3.6428136963465619e+01 -8 5 0
6637 218 58 4.0999999999999998e-01 -2.1829816329302862e+01 -2.0609288874415711e+01 -3.6925765101936747e+01 4 0 1
10685 1567 58 4.0999999999999998e-01 -2.3070817818474396e+01 -1.9693515339663385e+01 -3.4824641190821517e+01 -7 -2 0
10683 1567 57 -8.1999999999999995e-01 -2.3044285715459658e+01 -2.0011551493987817e+01 -3.5772343086360848e+01 -7 -2 0
10706 1574 58 4.0999999999999998e-01 -2.1246533837792725e+01 -2.0044096465949153e+01 -3.1347069548759418e+01 8 -3 0
6638 218 58 4.0999999999999998e-01 -2.0243431531993281e+01 -2.0923483051229145e+01 -3.7154355664401677e+01 4 0 1
13184 2400 58 4.0999999999999998e-01 -1.8509843285158169e+01 -2.0802909252662296e+01 -3.5600231505859242e+01 -5 -7 0
7217 411 58 4.0999999999999998e-01 -4.9853086680638725e-01 -2.5638692771925374e+01 -1.9678315623466819e+01 1 9 1
13183 2400 58 4.0999999999999998e-01 -1.8967596303207355e+01 -2.2321649734496553e+01 -3.5989485045554481e+01 -5 -7 0
13569 2529 57 -8.1999999999999995e-01 -2.0419260603864437e+01 -2.5892070430398014e+01 -2.8314194593015735e+01 3 -2 0
6636 218 57 -8.1999999999999995e-01 -2.1088626507149932e+01 -2.0623823997258683e+01 -3.7596894956013742e+01 4 0 1
12823 2280 58 4.0999999999999998e-01 -1.8729447629322880e+01 -2.5999792655259306e+01 -3.2489011845198220e+01 5 1 0
6437 151 58 4.0999999999999998e-01 -1.7855487094936890e+01 -2.0090111176359031e+01 -3.3088799308488817e+01 1 3 1
6435 151 57 -8.1999999999999995e-01 -1.7343474254286750e+01 -2.0449645671458317e+01 -3.2308690556149863e+01 1 3 1
6436 151 58 4.0999999999999998e-01 -1.7821898593545669e+01 -2.1243100121131917e+01 -3.1932470637366201e+01 1 3 1
10684 1567 58 4.0999999999999998e-01 -2.3518362833289327e+01 -1.9354413188562049e+01 -3.6358360970096214e+01 -7 -2 0
3797 71 15 0.0000000000000000e+00 -3.6987560759925469e+00 -9.2464822605617183e+00 -1.9313324482018899e+01 0 0 0
13634 2550 58 4.0999999999999998e-01 -2.3363059667615989e+01 -2.6208244832737094e+01 -3.6824684039282829e+01 3 -1 0
11201 1739 58 4.0999999999999998e-01 -1.7644910790772816e+01 -2.6721745190670269e+01 -3.6766710984561946e+01 4 -1 0
8947 988 58 4.0999999999999998e-01 -1.4798678659065203e+01 -1.4958809001467813e+01 -3.7952950082752956e+01 0 4 1
6718 245 58 4.0999999999999998e-01 -1.7332328577137758e+01 -1.9697125832650087e+01 -3.0816450378493119e+01 -7 1 1
6717 245 57 -8.1999999999999995e-01 -1.7270663649138100e+01 -1.9659743698810580e+01 -2.9819059965267364e+01 -7 1 1
12038 2018 58 4.0999999999999998e-01 -1.7819666299568222e+01 -2.6456625642816249e+01 -2.9566170854908432e+01 0 -2 0
11695 1904 58 4.0999999999999998e-01 -1.7147065321855379e+01 -2.3648726413592485e+01 -3.1458959863475641e+01 -3 2 0
11203 1740 58 4.0999999999999998e-01 -2.5124960802241233e+01 -2.0872807051428616e+01 -3.2691580760169401e+01 8 7 0
11200 1739 58 4.0999999999999998e-01 -1.6464795018121020e+01 -2.7038608325429390e+01 -3.5682962561853770e+01 4 -1 0
10048 1355 58 4.0999999999999998e-01 -2.3699908151813933e+01 -1.9168138938449417e+01 -3.2796460075004234e+01 3 4 1
12970 2329 58 4.0999999999999998e-01 -2.0176807965488379e+01 -1.8874858192567551e+01 -2.9679045259870623e+01 -2 0 0
10047 1355 57 -8.1999999999999995e-01 -2.3145654147590395e+01 -1.8753798624754680e+01 -3.3518344265127396e+01 3 4 1
3788 71 30 1.7000000000000000e+00 -4.4987525889158659e+00 -8.2049200209482080e+00 -2.6547383488562268e+01 0 0 0
11563 1860 58 4.0999999999999998e-01 -1.9883175142268204e+01 -2.7703850375140572e+01 -3.4120243699964291e+01 -4 -5 0
12206 2074 58 4.0999999999999998e-01 -2.1383536978527424e+01 -5.5487827829233538e-01 -3.6787822403186375e+01 -2 -10 0
11204 1740 58 4.0999999999999998e-01 -2.5554620262815050e+01 -2.1275333949025139e+01 -3.4215046916800205e+01 8 7 0
7399 472 58 4.0999999999999998e-01 -1.1306920947358037e+01 -2.8134928548756335e+01 -3.6365900066565501e+01 -8 8 1
8538 852 57 -8.1999999999999995e-01 -1.8562968938795112e+01 -2.5303990960575888e+01 -3.7929534377677406e+01 12 7 1
9597 1205 57 -8.1999999999999995e-01 -2.5813151064995346e+01 -2.3631613871086877e+01 -3.7640321953138141e+01 -10 1 1
6836 284 58 4.0999999999999998e-01 -1.1210804358403266e+00 -2.5782044588625016e+01 -2.8884458488455820e+01 3 2 1
8200 739 58 4.0999999999999998e-01 -2.0658750725995390e-01 -2.5283736221478620e+01 -3.1000460194745802e+01 -6 -1 1
10229 1415 58 4.0999999999999998e-01 -1.2273453320744633e+01 -2.1135199279294525e-01 -3.5548536903052330e+01 -8 5 0
7430 482 58 4.0999999999999998e-01 -9.5065450762075088e-01 -8.2064758390213726e+00 -2.2017417606685658e+01 5 1 1
10612 1543 58 4.0999999999999998e-01 -1.5698081330580552e+01 -2.5268026652172871e+01 -3.4147424055050848e+01 2 -2 0
9841 1286 58 4.0999999999999998e-01 -1.5309980996537732e+01 -2.3016657396609599e+01 -3.5318777795140051e+01 -4 7 1
9842 1286 58 4.0999999999999998e-01 -1.5072950294823269e+01 -2.4407296832620712e+01 -3.6141917436307189e+01 -4 7 1
9840 1286 57 -8.1999999999999995e-01 -1.5442759322000169e+01 -2.4007684147908769e+01 -3.5303142593196284e+01 -4 7 1
6719 245 58 4.0999999999999998e-01 -1.6411489878957823e+01 -2.0076282387699848e+01 -2.9521891862276654e+01 -7 1 1
13390 2469 58 4.0999999999999998e-01 -1.3414020489029411e+01 -2.2530486241167981e+01 -3.2458541875782572e+01 3 7 0
12036 2018 57 -8.1999999999999995e-01 -1.7820493480075083e+01 -2.6680463570199290e+01 -3.0540791124618245e+01 0 -2 0
11694 1904 57 -8.1999999999999995e-01 -1.6350762752869443e+01 -2.4251332672825207e+01 -3.1406381344721300e+01 -3 2 0
11696 1904 58 4.0999999999999998e-01 -1.5577657140461154e+01 -2.3749774493425413e+01 -3.1018126501397120e+01 -3 2 0
7400 472 58 4.0999999999999998e-01 -1.1386480589081653e+01 -2.6693513034530419e+01 -3.7129846666617155e+01 -8 8 1
7398 472 57 -8.1999999999999995e-01 -1.1806039566058008e+01 -2.7597316357372577e+01 -3.7045494076321525e+01 -8 8 1
8829 949 57 -8.1999999999999995e-01 -1.8289055007116950e+01 -2.3981317235962344e+01 -3.5763292636802895e+01 -7 -1 1
6858 292 57 -8.1999999999999995e-01 -2.5614239627059117e+01 -1.3593721747186230e+01 -3.2704404753357110e+01 3 2 1
8830 949 58 4.0999999999999998e-01 -1.7307362481961185e+01 -2.3976377611854620e+01 -3.5572910804734391e+01 -7 -1 1
9613 1210 58 4.0999999999999998e-01 -1.5345710716514386e+01 -2.0757455886257585e+01 -3.4722861461563504e+01 11 1 1
9614 1210 58 4.0999999999999998e-01 -1.4070401323036975e+01 -2.0865357267671598e+01 -3.5737517961665816e+01 11 1 1
12285 2101 57 -8.1999999999999995e-01 -1.2627421779466999e+01 -2.4638237071832727e+01 -3.4815454140270873e+01 -4 5 0
9175 1064 58 4.0999999999999998e-01 -8.4074369014627131e+00 -2.2562779072439966e+01 -3.6433038859621306e+01 8 3 1
12287 2101 58 4.0999999999999998e-01 -1.2043990511982621e+01 -2.5447597864993114e+01 -3.4748033517006540e+01 -4 5 0
9174 1064 57 -8.1999999999999995e-01 -8.4404005805840967e+00 -2.2452391754270568e+01 -3.7426374593965065e+01 8 3 1
13389 2469 57 -8.1999999999999995e-01 -1.3924531114622908e+01 -2.2937065019950026e+01 -3.1700871653202611e+01 3 7 0
12286 2101 58 4.0999999999999998e-01 -1.3460253871765067e+01 -2.4868108118422587e+01 -3.5318982204703218e+01 -4 5 0
12398 2138 58 4.0999999999999998e-01 -1.0896256625981085e+01 -2.3778068826637618e+01 -2.9487988227535475e+01 6 -4 0
13391 2469 58 4.0999999999999998e-01 -1.3421770126101574e+01 -2.3724407149477649e+01 -3.1344045748672503e+01 3 7 0
12720 2246 57 -8.1999999999999995e-01 -1.0840513741897844e+01 -2.6554060068509685e+01 -3.4157841741692863e+01 1 -7 0
9612 1210 57 -8.1999999999999995e-01 -1.5012587311101464e+01 -2.1158933629982460e+01 -3.5575994208965696e+01 11 1 1
11883 1967 57 -8.1999999999999995e-01 -1.1206873617695582e+01 -2.5021678574271682e+01 -3.7831296160456795e+01 -2 9 0
9219 1079 57 -8.1999999999999995e-01 -2.4198113046257657e+01 -2.7732340066635288e+01 -3.3216325008305148e+01 -5 2 1
10258 1425 58 4.0999999999999998e-01 -1.4334568570619584e+01 -2.5125984529857043e+01 -3.8011711604967246e+01 -6 5 0
8831 949 58 4.0999999999999998e-01 -1.8451237698077840e+01 -2.4370039077037717e+01 -3.6670256179682859e+01 -7 -1 1
10613 1543 58 4.0999999999999998e-01 -1.5737839353942334e+01 -2.5382414078477709e+01 -3.2518646689197716e+01 2 -2 0
10611 1543 57 -8.1999999999999995e-01 -1.5776908974959516e+01 -2.5897836505309048e+01 -3.3374687576551608e+01 2 -2 0
12037 2018 58 4.0999999999999998e-01 -1.7203723694987655e+01 -2.6060758016464803e+01 -3.1026132468189267e+01 0 -2 0
12743 2253 58 4.0999999999999998e-01 -9.7031123775241639e+00 -2.5733973832964523e+01 -3.0325561637374101e+01 0 2 0
12741 2253 57 -8.1999999999999995e-01 -1.0001669955412527e+01 -2.5328947040806920e+01 -2.9461381286774234e+01 0 2 0
10257 1425 57 -8.1999999999999995e-01 -1.3940424961039680e+01 -2.5381699496523350e+01 -3.7128959926140674e+01 -6 5 0
12722 2246 58 4.0999999999999998e-01 -1.1364929055877692e+01 -2.6900968839199738e+01 -3.3380259771686795e+01 1 -7 0
11598 1872 57 -8.1999999999999995e-01 -1.1989451455128723e+01 -2.2229168397118066e+01 -3.3923355389663747e+01 -8 5 0
11600 1872 58 4.0999999999999998e-01 -1.2407368077155981e+01 -2.3106831899676564e+01 -3.4157996354773090e+01 -8 5 0
11326 1781 58 4.0999999999999998e-01 -1.1849332857134499e+01 -2.1347148936757335e+01 -2.9647584924991264e+01 -1 -2 0
11885 1967 58 4.0999999999999998e-01 -1.1808810560657310e+01 -2.4420283579888565e+01 -3.7305947048257494e+01 -2 9 0
12742 2253 58 4.0999999999999998e-01 -1.0479816699956880e+01 -2.6018331477873247e+01 -2.8917209830110224e+01 0 2 0
11049 1689 57 -8.1999999999999995e-01 -1.3786151396900523e+01 -2.5486561629307445e+01 -3.0488249794112171e+01 1 -4 0
13679 2565 58 4.0999999999999998e-01 -1.7797206319715475e+01 -2.0976098166111612e-01 -3.2435737952410143e+01 0 -3 0
9187 1068 58 4.0999999999999998e-01 -9.2440542132796395e+00 -2.2530840545988099e+01 -3.4083295961555947e+01 3 -3 1
9186 1068 57 -8.1999999999999995e-01 -8.6199470861422292e+00 -2.2197111098407625e+01 -3.4789770331486167e+01 3 -3 1
8593 870 58 4.0999999999999998e-01 -1.8050481719833655e-01 -1.2072742844746934e+01 -3.6122866644098885e+01 -3 12 1
11325 1781 57 -8.1999999999999995e-01 -1.1759514507892446e+01 -2.0351621300351702e+01 -2.9677013166971662e+01 -1 -2 0
11050 1689 58 4.0999999999999998e-01 -1.3614351383104344e+01 -2.6430491682616093e+01 -3.0770183008631001e+01 1 -4 0
11051 1689 58 4.0999999999999998e-01 -1.4339759147350948e+01 -2.5482419810365922e+01 -2.9655488539897512e+01 1 -4 0
8506 841 58 4.0999999999999998e-01 -1.4994275433568015e+01 -2.0328439968847306e+01 -3.7282097914508810e+01 14 -1 1
11599 1872 58 4.0999999999999998e-01 -1.1767234766447123e+01 -2.1730630287897696e+01 -3.4761252799903417e+01 -8 5 0
12675 2231 57 -8.1999999999999995e-01 -1.0216586477268788e+01 -2.0568413989811454e+01 -3.8120474697203306e+01 2 -6 0
7090 369 58 4.0999999999999998e-01 -1.2083530719919082e+01 -2.0606429951797548e+01 -3.2839624256645408e+01 11 11 1
7091 369 58 4.0999999999999998e-01 -1.2295343787644136e+01 -2.0105787459565772e+01 -3.1299468966412860e+01 11 11 1
7089 369 57 -8.1999999999999995e-01 -1.2258489196781662e+01 -1.9814032981469261e+01 -3.2255246684804654e+01 11 11 1
13658 2558 58 4.0999999999999998e-01 -1.4053330478540113e+01 -1.9750034144923028e+01 -3.2779779663704787e+01 -2 1 0
12677 2231 58 4.0999999999999998e-01 -9.6426172272210735e+00 -2.1270029667343138e+01 -3.7698225881644177e+01 2 -6 0
6761 259 58 4.0999999999999998e-01 -1.4313587393806651e+01 -2.1748335609228135e+01 -2.9415748723831310e+01 -2 2 1
10480 1499 58 4.0999999999999998e-01 -8.3581633988428301e+00 -2.5722603887933683e+01 -3.2743698913752752e+01 3 -5 0
12721 2246 58 4.0999999999999998e-01 -9.9857144576806860e+00 -2.6151083519689603e+01 -3.3830854501951691e+01 1 -7 0
10479 1499 57 -8.1999999999999995e-01 -8.0007930729666299e+00 -2.5427962329895315e+01 -3.3629962066232963e+01 3 -5 0
10481 1499 58 4.0999999999999998e-01 -7.0017310333592953e+00 -2.5469309988416061e+01 -3.3617494833572266e+01 3 -5 0
9188 1068 58 4.0999999999999998e-01 -8.1274243856347859e+00 -2.1396343455866937e+01 -3.4448897408545257e+01 3 -3 1
11271 1763 57 -8.1999999999999995e-01 -6.0587766528269178e+00 -2.7365689636563417e+01 -3.0114505696737787e+01 0 0 0
9628 1215 58 4.0999999999999998e-01 -1.5682714507868461e+01 -2.7554213254068614e+01 -3.2486369679001406e+01 -2 6 1
10259 1425 58 4.0999999999999998e-01 -1.3264710668072404e+01 -2.6106661690508947e+01 -3.7262526117689426e+01 -6 5 0
12396 2138 57 -8.1999999999999995e-01 -1.1415799128413157e+01 -2.2946817569480690e+01 -2.9290252595365249e+01 6 -4 0
12059 2025 58 4.0999999999999998e-01 -9.8475406686026830e+00 -2.2192668110802835e+01 -2.9527891978037225e+01 -8 0 0
12057 2025 57 -8.1999999999999995e-01 -8.9161851243630643e+00 -2.1831170434761333e+01 -2.9484418530430972e+01 -8 0 0
12058 2025 58 4.0999999999999998e-01 -8.9122155799106011e+00 -2.0981384633879735e+01 -2.8957302913650018e+01 -8 0 0
11272 1763 58 4.0999999999999998e-01 -5.4994590850327825e+00 -2.6560255607749280e+01 -2.9918441219784434e+01 0 0 0
9978 1332 57 -8.1999999999999995e-01 -1.1256614130669442e+01 -2.7525388332164269e+01 -2.8167842524681710e+01 5 0 1
5140 96 2 -8.0000000000000004e-01 -2.3153438783089729e+01 -6.0422042627361205e-01 -2.8888605801193886e+01 0 0 0
9961 1326 58 4.0999999999999998e-01 -1.7596551414765464e+00 -2.6572421327779978e+01 -3.6767451116893618e+01 -3 -2 1
6833 283 58 4.0999999999999998e-01 -7.5173018175811990e+00 -2.0851900386580816e+01 -3.6909460779991832e+01 -11 -3 1
6831 283 57 -8.1999999999999995e-01 -6.7818518141750417e+00 -2.0174324484820104e+01 -3.6907838064602082e+01 -11 -3 1
8191 736 58 4.0999999999999998e-01 -5.0199345037657146e+00 -2.2946753155624322e+01 -3.3698210777420087e+01 -7 -3 1
8190 736 57 -8.1999999999999995e-01 -4.7880615482554063e+00 -2.3388965651383543e+01 -3.2831795926571601e+01 -7 -3 1
8192 736 58 4.0999999999999998e-01 -5.4785584435717283e+00 -2.3160934818517603e+01 -3.2145351282319041e+01 -7 -3 1
9273 1097 57 -8.1999999999999995e-01 -2.4147248174058404e+00 -2.7928239124539598e+01 -3.0999982936056320e+01 -3 3 1
10615 1544 58 4.0999999999999998e-01 -6.4437751606522191e+00 -2.3213458487276625e+01 -3.5117450328620961e+01 2 0 0
6851 289 58 4.0999999999999998e-01 -3.4406617818919152e+00 -2.0590473812191959e+01 -3.2564430325225430e+01 2 4 1
7648 555 58 4.0999999999999998e-01 -4.7206824537240664e+00 -2.0408811662554484e+01 -3.6377765312209071e+01 6 8 1
6692 236 58 4.0999999999999998e-01 -3.6814273157709785e+00 -2.4925169694147232e+01 -3.5537248767311809e+01 -3 8 1
6850 289 58 4.0999999999999998e-01 -3.7668157023584676e+00 -2.0351214735267547e+01 -3.4146821454961909e+01 2 4 1
7435 484 58 4.0999999999999998e-01 -7.4097985359661074e+00 -2.2477445000878046e+01 -3.0300382338067521e+01 -8 0 1
9855 1291 57 -8.1999999999999995e-01 -4.3604278558099310e+00 -2.5091324426189310e+01 -2.9892978228542297e+01 3 6 1
10827 1615 57 -8.1999999999999995e-01 -2.5762274149452438e+01 -1.7979428316396202e+00 -3.6544882450591480e+01 2 -1 0
11456 1824 58 4.0999999999999998e-01 -5.7583694180244365e+00 -2.8080564289062913e+01 -3.3992308894622418e+01 -7 6 0
10614 1544 57 -8.1999999999999995e-01 -5.6652981486618650e+00 -2.3045675731867465e+01 -3.5722274656744361e+01 2 0 0
9856 1291 58 4.0999999999999998e-01 -4.5529050655206511e+00 -2.4110021990707843e+01 -2.9895394608276096e+01 3 6 1
12054 2024 57 -8.1999999999999995e-01 -4.1745995889567880e+00 -2.2447009004891175e+01 -2.9448497138358281e+01 2 7 0
7434 484 57 -8.1999999999999995e-01 -6.5326481304067450e+00 -2.2816565118379913e+01 -3.0640378528429448e+01 -8 0 1
12055 2024 58 4.0999999999999998e-01 -3.4608397169903853e+00 -2.2007605019716316e+01 -2.9993899647523826e+01 2 7 0
6690 236 57 -8.1999999999999995e-01 -3.9480730553559447e+00 -2.5876085796557071e+01 -3.5380197841120548e+01 -3 8 1
7436 484 58 4.0999999999999998e-01 -5.8037541129020305e+00 -2.2546134458912586e+01 -3.0011433454396936e+01 -8 0 1
6832 283 58 4.0999999999999998e-01 -7.1620423059434053e+00 -1.9269459414896570e+01 -3.6716320552923257e+01 -11 -3 1
6691 236 58 4.0999999999999998e-01 -4.5424609181767259e+00 -2.5927909319215903e+01 -3.4577697992047597e+01 -3 8 1
6849 289 57 -8.1999999999999995e-01 -4.1389523528864949e+00 -2.0302850897118500e+01 -3.3219910733884731e+01 2 4 1
7903 640 58 4.0999999999999998e-01 -2.7019517351692990e+00 -2.3237576274249186e+01 -3.7172502880725382e+01 0 -1 1
10639 1552 58 4.0999999999999998e-01 -3.1449825348456812e+00 -2.3302069453513823e+01 -3.2319859111158998e+01 -2 1 0
10638 1552 57 -8.1999999999999995e-01 -2.2194542128420842e+00 -2.3257648283718755e+01 -3.1943808906149680e+01 -2 1 0
11664 1894 57 -8.1999999999999995e-01 -2.3327114690173580e+00 -2.8193049499066980e+01 -3.5777930198928559e+01 -1 10 0
9347 1121 58 4.0999999999999998e-01 -2.0181537575893209e+00 -2.1738051849706448e+01 -3.1414163942826015e+01 2 3 1
9275 1097 58 4.0999999999999998e-01 -2.5477556357450446e+00 -2.7666029284015117e+01 -3.0044191065387981e+01 -3 3 1
6745 254 58 4.0999999999999998e-01 -5.1497803795776278e+00 -2.6040543184961070e+01 -3.2256266226421673e+01 5 6 1
11666 1894 58 4.0999999999999998e-01 -2.8624384201959998e+00 -2.7372058808009701e+01 -3.5564938264813371e+01 -1 10 0
9345 1121 57 -8.1999999999999995e-01 -2.1886005920717686e+00 -2.0752819365926662e+01 -3.1397668637742250e+01 2 3 1
9629 1215 58 4.0999999999999998e-01 -1.5850682396864109e+01 -2.7945159896368303e+01 -3.0909495399370602e+01 -2 6 1
13621 2546 58 4.0999999999999998e-01 -6.0870981484506430e+00 -2.0435423242131002e+01 -3.3136574919368130e+01 10 1 0
13620 2546 57 -8.1999999999999995e-01 -6.9654385074854730e+00 -2.0870855552808685e+01 -3.2939315026500033e+01 10 1 0
13622 2546 58 4.0999999999999998e-01 -6.8524826309705347e+00 -2.1527508686059310e+01 -3.2193631089579185e+01 10 1 0
6744 254 57 -8.1999999999999995e-01 -4.6212906090575210e+00 -2.6694603342501466e+01 -3.2797469623154647e+01 5 6 1
10640 1552 58 4.0999999999999998e-01 -1.7169220092139419e+00 -2.4084831915763360e+01 -3.2195265467372501e+01 -2 1 0
6746 254 58 4.0999999999999998e-01 -4.0607570848891896e+00 -2.7255885957491127e+01 -3.2188569727205632e+01 5 6 1
7902 640 57 -8.1999999999999995e-01 -2.9650329835762719e+00 -2.3418304305168054e+01 -3.6224814001386093e+01 0 -1 1
7904 640 58 4.0999999999999998e-01 -3.8642734033366075e+00 -2.3019038544991155e+01 -3.6046077276526397e+01 0 -1 1
13607 2541 58 4.0999999999999998e-01 -6.4349619289465565e-01 -1.1610178685664078e+01 -2.8752462916363527e+01 -2 -1 0
9979 1332 58 4.0999999999999998e-01 -1.1893040244205054e+01 -2.7701778784034854e+01 -2.7416950837512474e+01 5 0 1
9346 1121 58 4.0999999999999998e-01 -1.3194876318018416e+00 -2.0262551245227712e+01 -3.1463045039541594e+01 2 3 1
10616 1544 58 4.0999999999999998e-01 -5.8299319893621266e+00 -2.3481684589693863e+01 -3.6607025469928615e+01 2 0 0
6834 284 57 -8.1999999999999995e-01 -1.9403713596022278e+00 -2.6167579570225019e+01 -2.8460056407849411e+01 3 2 1
3945 74 16 4.0000000000000002e-01 -4.0466816041258875e+00 -1.8193425669925308e+01 -2.9820662483405471e+01 0 0 0
7139 385 58 4.0999999999999998e-01 -3.1389614215055417e-01 -1.4106697696525186e+01 -2.6644494259350019e+01 -5 2 1
7824 614 57 -8.1999999999999995e-01 -1.1798707596140083e+00 -2.5968901991464225e+01 -3.2780965558336419e+01 6 -1 1
8959 992 58 4.0999999999999998e-01 -2.2356373167254379e+01 -2.7324870828991305e+01 -2.9597167819617511e+01 8 6 1
3946 74 8 -5.0000000000000000e-01 -3.1616473621954531e+00 -1.7928589062985587e+01 -2.8719921208860150e+01 0 0 0
4811 90 15 2.9999999999999999e-01 -7.6732184174794082e-01 -2.7915527731161298e+01 -2.3727621470320400e+01 0 0 0
12906 2308 57 -8.1999999999999995e-01 -3.5503691406270832e-01 -1.4460887281686020e+01 -3.0091984945270056e+01 -1 1 0
8096 704 58 4.0999999999999998e-01 -1.6787338891428327e+01 -2.6230556734741839e-02 -3.7365969267915887e+01 5 -3 1
7825 614 58 4.0999999999999998e-01 -1.8201061096292612e+00 -2.6594744492540954e+01 -3.2335525176779981e+01 6 -1 1
7429 482 58 4.0999999999999998e-01 -3.1453489411173763e-01 -7.6018715831871901e+00 -2.3394877051739776e+01 5 1 1
10228 1415 58 4.0999999999999998e-01 -1.2688617353826766e+01 -1.6114579459050553e+00 -3.6279949176613975e+01 -8 5 0
3954 74 15 4.0000000000000002e-01 -2.5057220915242967e-01 -1.8581824658272929e+01 -2.2599246365844021e+01 0 0 0
11290 1769 58 4.0999999999999998e-01 -1.3733845438425867e+00 -2.2718720628414626e+01 -3.5210995791073458e+01 -2 -10 0
5868 109 12 8.0000000000000004e-01 -4.9652514717862584e-01 -2.1921787866110687e+01 -2.0665353241149312e+01 0 0 0
8540 852 58 4.0999999999999998e-01 -1.9553883815340178e+01 -2.5438315963075723e+01 -3.7935457647805329e+01 12 7 1
11289 1769 57 -8.1999999999999995e-01 -4.6946657759080068e-01 -2.2411050661857434e+01 -3.4913903739036407e+01 -2 -10 0
6599 205 58 4.0999999999999998e-01 -8.6579235753127790e+00 -2.8076587403925988e+01 -3.2035732771637015e+01 -7 4 1
13068 2362 57 -8.1999999999999995e-01 -2.0477384804666052e+01 -1.7657103839928723e+01 -3.4214519620776464e+01 6 4 0
13069 2362 58 4.0999999999999998e-01 -2.1305671867022742e+01 -1.8212917790847484e+01 -3.4143759931895758e+01 6 4 0
12422 2146 58 4.0999999999999998e-01 -1.9519053519688381e+01 -1.6103898361496931e+01 -3.7155675205198087e+01 0 1 0
12971 2329 58 4.0999999999999998e-01 -1.8586749667655109e+01 -1.8515811574022564e+01 -2.9577117437579396e+01 -2 0 0
3950 74 30 1.7000000000000000e+00 -6.6960412820999593e-01 -1.9527048339984063e+01 -2.4905365861290541e+01 0 0 0
12969 2329 57 -8.1999999999999995e-01 -1.9512790837723713e+01 -1.8176526807206169e+01 -2.9411813258864669e+01 -2 0 0
6456 158 57 -8.1999999999999995e-01 -2.2968067103678532e+01 -1.6492586410315234e+01 -3.0600639848319457e+01 -10 -5 1
7765 594 58 4.0999999999999998e-01 -1.6939028563056958e+01 -1.2923904703034916e+01 -3.6149863752392577e+01 -4 -7 1
13192 2403 58 4.0999999999999998e-01 -2.0129986970773402e+01 -1.3738593779809143e+01 -3.6171339581046269e+01 -4 1 0
13441 2486 58 4.0999999999999998e-01 -2.3758681613658833e+01 -1.5485860041135663e+01 -3.4909158564904885e+01 -4 0 0
10049 1355 58 4.0999999999999998e-01 -2.3212456964271944e+01 -1.7757716325192572e+01 -3.3460328428612648e+01 3 4 1
11485 1834 58 4.0999999999999998e-01 -2.0124708213536433e+01 -1.1149609962301767e+01 -3.1076246910294778e+01 1 -7 0
11486 1834 58 4.0999999999999998e-01 -2.0051941037455517e+01 -1.2537876382777979e+01 -3.0218901608330810e+01 1 -7 0
11484 1834 57 -8.1999999999999995e-01 -1.9795977166933341e+01 -1.2094035655492583e+01 -3.1077667984860561e+01 1 -7 0
13211 2409 58 4.0999999999999998e-01 -2.2477669064002566e+01 -9.6062721376964717e+00 -3.4539576239265550e+01 10 -3 0
13209 2409 57 -8.1999999999999995e-01 -2.2655384041308810e+01 -1.0138346637508295e+01 -3.3711742793119321e+01 10 -3 0
13070 2362 58 4.0999999999999998e-01 -2.0397321272915061e+01 -1.7294024860196437e+01 -3.5142826617605571e+01 6 4 0