LAMMPS data file via write_data, version 5 Oct 2015, timestep = 14000

14048 atoms
58 atom types
11360 bonds
54 bond types
9680 angles
55 angle types
5536 dihedrals
43 dihedral types
336 impropers
3 improper types

-2.5850098325735171e+01 2.5850098325735171e+01 xlo xhi
-2.8300540664590159e+01 2.8300540664590159e+01 ylo yhi
-3.8241776561359039e+01 3.8241776561359039e+01 zlo zhi

Masses

1 15.9994
2 15.9994
3 15.9994
4 15.9994
5 15.9994
6 14.0067
7 14.0067
8 14.0067
9 14.0067
10 14.0067
11 14.0067
12 12.011
13 12.011
14 13.019
15 14.027
16 15.035
17 16.043
18 14.027
19 13.019
20 1.008
21 1.008
22 999
23 32.06
24 63.546
25 63.546
26 55.847
27 65.37
28 24.305
29 40.08
30 30.9738
31 39.948
32 18.9984
33 35.453
34 79.904
35 15.035
36 15.9994
37 22.9898
38 35.453
39 12.011
40 35.453
41 1.008
42 32.06
43 15.035
44 15.9994
45 12.011
46 35.453
47 18.9984
48 12.011
49 14.027
50 15.9994
51 12.011
52 15.9994
53 14.0067
54 28.08
55 999
56 999
57 15.994
58 1.008

Pair Coeffs # lj/cut/coul/long/gpu

1 0.30699 2.7601
2 0.41401 2.6259
3 0.25371 2.8492
4 0.25371 2.8492
5 0.15604 3.1656
6 0.15355 3.1365
7 0.15355 3.1365
8 0.15355 3.1365
9 0.15355 3.1365
10 0.15355 3.1365
11 0.15355 3.1365
12 0.066577 3.5812
13 0.0016789 6.6395
14 0.022773 5.0192
15 0.09853 4.0704
16 0.20812 3.7479
17 0.30682 3.7028
18 0.11503 3.9547
19 0.14617 3.6818
20 0.028411 2.3734
21 0 0
22 0 0
23 0.039532 2.309
24 0 0
25 0 1
26 0 0
27 0 0
28 0 0
29 0 0
30 0.58722 3.3856
31 0 0
32 0 0
33 0 0
34 0 0
35 0 0
36 0 0
37 0 0
38 0 0
39 0 0
40 0 0
41 0 0
42 0 0
43 0 0
44 0 0
45 0 0
46 0 0
47 0 0
48 0 0
49 0 0
50 0 0
51 0 0
52 0 0
53 0 0
54 0 0
55 0 0
56 0 0
57 0.15543 3.1655
58 0 0

Bond Coeffs # harmonic

1 375.23 1
2 446.93 1
3 349.266 1.09
4 1109.27 1.12
5 600.228 1.23
6 500.406 1.25
7 499.72 1.32
8 374.994 1.33
9 448.133 1.33
10 498.865 1.33
11 450.606 1.34
12 502.104 1.34
13 450.896 1.36
14 500.667 1.38
15 399.894 1.39
16 498.714 1.39
17 400.048 1.4
18 399.782 1.43
19 450.121 1.43
20 300.214 1.435
21 449.832 1.47
22 299.969 1.48
23 399.958 1.48
24 450.215 1.48
25 450.097 1.5
26 299.837 1.52
27 400.025 1.53
28 299.844 1.61
29 299.72 1.63
30 205.971 1.78
31 449.805 1.78
32 449.818 1.83
33 300.038 1.87
34 59.9664 1.98
35 60.0368 2
36 500.295 2.04
37 63.0342 2.21
38 554.48 1
39 349.92 1.1
40 599.78 1.758
41 449.818 1.53
42 444.33 1.938
43 599.664 1.76
44 501.014 1.265
45 448.645 1.35
46 555.115 1.633
47 350.241 2.3384
48 600.147 2.9028
49 445.873 2.7939
50 443.805 2.9119
51 409.318 2.077
52 600.159 2.8741
53 527.1 1
54 629.318 0.94

Improper Coeffs # harmonic

1 20.0071 0
2 40.0141 35.2644
3 80.0282 0

Atoms # full

8227 748 58 4.0999999999999998e-01 -1.7545347477027882e+01 -2.2094520435827121e+01 -3.6972953218577196e+01 -3 0 1
8816 944 58 4.0999999999999998e-01 -2.2549111620441732e+01 -2.7031183837428511e+01 -3.2293904715423693e+01 -7 0 1
8814 944 57 -8.1999999999999995e-01 -2.2261674959438103e+01 -2.6357033878837345e+01 -3.2974284030954550e+01 -7 0 1
8815 944 58 4.0999999999999998e-01 -2.3049749612203495e+01 -2.5809195260496836e+01 -3.3255021727719246e+01 -7 0 1
11309 1775 58 4.0999999999999998e-01 -1.9279468574310947e+01 -2.3100050082699312e+01 -2.9939146542633274e+01 3 -6 0
11307 1775 57 -8.1999999999999995e-01 -2.0168549342819173e+01 -2.3503149263709837e+01 -3.0156051981032370e+01 3 -6 0
11308 1775 58 4.0999999999999998e-01 -2.0071626810716097e+01 -2.4128293924274935e+01 -3.0930531239558977e+01 3 -6 0
8226 748 57 -8.1999999999999995e-01 -1.7165252294298639e+01 -2.3009243834661198e+01 -3.7110100114547073e+01 -3 0 1
11026 1681 58 4.0999999999999998e-01 -1.4889232961516829e+01 -2.1283704977522820e+01 -3.2080100865625070e+01 4 3 0
11025 1681 57 -8.1999999999999995e-01 -1.3964178758538276e+01 -2.1621765941121467e+01 -3.1906922064187604e+01 4 3 0
10306 1441 58 4.0999999999999998e-01 -1.9240631194369126e+01 -2.4733991416286621e+01 -3.3103632970729947e+01 0 4 0
10305 1441 57 -8.1999999999999995e-01 -1.9810203733699087e+01 -2.5034774180670489e+01 -3.2338692236883084e+01 0 4 0
9075 1031 57 -8.1999999999999995e-01 -2.1409215234025645e+01 -2.1932686767412964e+01 -3.8167692219748623e+01 -1 -6 1
6687 235 57 -8.1999999999999995e-01 -2.4458444919281458e+01 -2.7771803031064387e+01 -3.0842580980771707e+01 -2 9 1
11801 1939 58 4.0999999999999998e-01 -2.5349212761946770e+01 -5.1428770864901168e+00 -3.7113446370344313e+01 3 -8 0
10307 1441 58 4.0999999999999998e-01 -2.0637542025709998e+01 -2.5472641491178980e+01 -3.2690528243852754e+01 0 4 0
10705 1574 58 4.0999999999999998e-01 -1.9713835543548271e+01 -2.1019852006327728e+01 -3.1680012259972134e+01 8 -3 0
10704 1574 57 -8.1999999999999995e-01 -2.0234034674616286e+01 -2.0355834657162987e+01 -3.1142906501863436e+01 8 -3 0
8298 772 57 -8.1999999999999995e-01 -2.4910833455828488e+01 -2.5381449885234140e+01 -3.2973759370390447e+01 7 9 1
11027 1681 58 4.0999999999999998e-01 -1.3627246870088277e+01 -2.2102055207294075e+01 -3.2716748930971931e+01 4 3 0
7826 614 58 4.0999999999999998e-01 -7.7713079958454045e-01 -2.4104190346827099e+01 -3.1781021089582048e+01 6 -1 1
10706 1574 58 4.0999999999999998e-01 -2.1207426913427330e+01 -2.0580908156873022e+01 -3.1185912803566694e+01 8 -3 0
13831 2616 58 4.0999999999999998e-01 -2.5663765174098121e+01 -9.0492835039876915e+00 -2.2300865781503532e+01 -8 3 0
12037 2018 58 4.0999999999999998e-01 -1.8453692214097053e+01 -2.6067186806666562e+01 -3.1162397525881783e+01 0 -2 0
6435 151 57 -8.1999999999999995e-01 -1.6804639905552385e+01 -2.1218307791006239e+01 -3.2453789383803837e+01 1 3 1
6436 151 58 4.0999999999999998e-01 -1.7762389163986224e+01 -2.0976010850403235e+01 -3.2608738949906268e+01 1 3 1
6718 245 58 4.0999999999999998e-01 -1.7174814067879751e+01 -2.2122611766606987e+01 -3.0806293784609906e+01 -7 1 1
6717 245 57 -8.1999999999999995e-01 -1.7360014747504408e+01 -2.2839899619377739e+01 -3.0134569692044948e+01 -7 1 1
11695 1904 58 4.0999999999999998e-01 -1.6340450618531868e+01 -2.6213639803420783e+01 -3.1563393824748239e+01 -3 2 0
10612 1543 58 4.0999999999999998e-01 -1.4821930630241770e+01 -2.2672366510728228e+01 -3.4499902432082159e+01 2 -2 0
12036 2018 57 -8.1999999999999995e-01 -1.7908795998319949e+01 -2.6625120892893321e+01 -3.0536450458940230e+01 0 -2 0
11694 1904 57 -8.1999999999999995e-01 -1.5411255902464140e+01 -2.5975989177857269e+01 -3.1846453169420300e+01 -3 2 0
11696 1904 58 4.0999999999999998e-01 -1.4987124319316539e+01 -2.5398672628239151e+01 -3.1148719531693793e+01 -3 2 0
10613 1543 58 4.0999999999999998e-01 -1.6042289516183814e+01 -2.2622321045166437e+01 -3.5584277674082330e+01 2 -2 0
10611 1543 57 -8.1999999999999995e-01 -1.5663670570771890e+01 -2.2199717628303461e+01 -3.4760824655786088e+01 2 -2 0
8507 841 58 4.0999999999999998e-01 -1.9937461555162827e+01 -2.1250321840052209e+01 -3.4069013576073374e+01 14 -1 1
8505 841 57 -8.1999999999999995e-01 -1.9322920548305717e+01 -2.1700398297861355e+01 -3.3421107018845561e+01 14 -1 1
13069 2362 58 4.0999999999999998e-01 -2.1743396823660287e+01 -2.0901226834825650e+01 -3.6285343531216348e+01 6 4 0
8343 787 57 -8.1999999999999995e-01 -2.2829206488656379e+01 -2.1245732381926093e+01 -3.0743663549268529e+01 5 0 1
8345 787 58 4.0999999999999998e-01 -2.3345198588367406e+01 -2.0789248674366480e+01 -3.0018825727932199e+01 5 0 1
8299 772 58 4.0999999999999998e-01 -2.4930550528143979e+01 -2.4519671874380730e+01 -3.2466848932507034e+01 7 9 1
12970 2329 58 4.0999999999999998e-01 -1.9377554036176456e+01 -1.9521987065415285e+01 -3.0036311586779501e+01 -2 0 0
13569 2529 57 -8.1999999999999995e-01 -2.2832240357747672e+01 -2.4023422141638196e+01 -3.0276576267531542e+01 3 -2 0
13570 2529 58 4.0999999999999998e-01 -2.1935799452178028e+01 -2.3784356930416529e+01 -2.9903419126053532e+01 3 -2 0
6719 245 58 4.0999999999999998e-01 -1.6495533234018577e+01 -2.3212118978855127e+01 -2.9796741238062896e+01 -7 1 1
8960 992 58 4.0999999999999998e-01 -2.5329936823269001e+01 -2.7545841182708553e+01 -2.7440879810257840e+01 8 6 1
12038 2018 58 4.0999999999999998e-01 -1.8103584571499724e+01 -2.6355607091408039e+01 -2.9593345176801527e+01 0 -2 0
8229 749 57 -8.1999999999999995e-01 -6.8242002728139504e+00 -1.2552106094988627e+01 -3.7885499946280099e+01 0 -4 1
12969 2329 57 -8.1999999999999995e-01 -1.8850289832913248e+01 -1.9216797277206116e+01 -2.9243297478827969e+01 -2 0 0
10377 1465 57 -8.1999999999999995e-01 -1.1197292064488211e+01 -2.8172068292318844e+01 -3.5698329413541487e+01 2 2 0
6692 236 58 4.0999999999999998e-01 -6.1906392892686668e-01 -2.7656639448237645e+01 -3.4337387944066997e+01 -3 8 1
9326 1114 58 4.0999999999999998e-01 -1.8472809369536481e+01 -2.4900873288911068e+01 -3.4907284595058400e+01 -3 2 1
9325 1114 58 4.0999999999999998e-01 -1.7478022962654208e+01 -2.3709114005167020e+01 -3.5414956614356285e+01 -3 2 1
13571 2529 58 4.0999999999999998e-01 -2.3255549142088359e+01 -2.4725741201685839e+01 -2.9704241293900978e+01 3 -2 0
9324 1114 57 -8.1999999999999995e-01 -1.8116412663469280e+01 -2.3990189270503819e+01 -3.4698387954023261e+01 -3 2 1
10583 1533 58 4.0999999999999998e-01 -2.3495916208037421e+01 -2.6964264855334218e+01 -3.5352489483624602e+01 2 0 0
10581 1533 57 -8.1999999999999995e-01 -2.4275691593236509e+01 -2.7385770228259975e+01 -3.4889573865312798e+01 2 0 0
11293 1770 58 4.0999999999999998e-01 -1.4840264712021188e+01 -1.0556352499821717e+01 -3.8140987252501226e+01 -2 -4 0
12035 2017 58 4.0999999999999998e-01 -2.2954802034558860e+01 -2.0465520887911250e+01 -3.2281588847612454e+01 4 3 0
12422 2146 58 4.0999999999999998e-01 -2.4374988300810681e+01 -1.9446801349024767e+01 -3.6088815752786559e+01 0 1 0
8506 841 58 4.0999999999999998e-01 -1.8871601410771678e+01 -2.2471746307740968e+01 -3.3869816539511618e+01 14 -1 1
12722 2246 58 4.0999999999999998e-01 -1.1426272881210441e+01 -2.7891649977414847e+01 -3.2092426814187753e+01 1 -7 0
8344 787 58 4.0999999999999998e-01 -2.2957616549791840e+01 -2.2234907330294075e+01 -3.0672643629698634e+01 5 0 1
11049 1689 57 -8.1999999999999995e-01 -1.4163519735281028e+01 -2.4350750007086237e+01 -2.9507013427908419e+01 1 -4 0
11050 1689 58 4.0999999999999998e-01 -1.3995194777618924e+01 -2.3374321568070666e+01 -2.9642125002652840e+01 1 -4 0
9333 1117 57 -8.1999999999999995e-01 -2.4712327644675970e+01 -2.0845569186873465e+01 -3.7160069649836899e+01 4 4 1
12513 2177 57 -8.1999999999999995e-01 -1.7376213643493742e+01 -1.2106394768201142e+01 -3.7843300123909280e+01 -4 2 0
12302 2106 58 4.0999999999999998e-01 -1.8357881586196054e+01 -2.6800262903361929e+01 -3.6338799166212823e+01 6 6 0
6437 151 58 4.0999999999999998e-01 -1.6446124033470173e+01 -2.1692916137220301e+01 -3.3257674718880061e+01 1 3 1
12301 2106 58 4.0999999999999998e-01 -1.7405752880222593e+01 -2.7515022377054542e+01 -3.7456931894360480e+01 6 6 0
13068 2362 57 -8.1999999999999995e-01 -2.1328886262792278e+01 -2.0142321551458394e+01 -3.5783097199311321e+01 6 4 0
13070 2362 58 4.0999999999999998e-01 -2.1834201040031321e+01 -1.9988394125922220e+01 -3.4933988749127273e+01 6 4 0
12420 2146 57 -8.1999999999999995e-01 -2.4261772789309948e+01 -1.8859695136258537e+01 -3.5287250451252177e+01 0 1 0
12033 2017 57 -8.1999999999999995e-01 -2.3279232067939013e+01 -2.0381658008416892e+01 -3.3223787543604402e+01 4 3 0
8948 988 58 4.0999999999999998e-01 -1.9325440977926799e+01 -1.7905471672468039e+01 -3.5669881116763548e+01 0 4 1
12421 2146 58 4.0999999999999998e-01 -2.3839833188345679e+01 -1.9383137435018707e+01 -3.4546985853784669e+01 0 1 0
12034 2017 58 4.0999999999999998e-01 -2.4024137447015608e+01 -2.1030444322127551e+01 -3.3379328878291268e+01 4 3 0
13820 2612 58 4.0999999999999998e-01 -1.4250530172532988e+01 -2.7129003858105865e+01 -3.2563313836763697e+01 15 -2 0
13580 2532 58 4.0999999999999998e-01 -2.3948733807285045e+01 -4.8593477315647604e-01 -3.3540616731516558e+01 2 2 0
12300 2106 57 -8.1999999999999995e-01 -1.7434237942446366e+01 -2.6839607764584347e+01 -3.6720032960030942e+01 6 6 0
13634 2550 58 4.0999999999999998e-01 -2.5128858933519972e+01 -2.4209349781348283e+01 -3.7549859675240981e+01 3 -1 0
13633 2550 58 4.0999999999999998e-01 -2.5170605050957541e+01 -2.3911803823390649e+01 -3.5944427205695433e+01 3 -1 0
10856 1624 58 4.0999999999999998e-01 -2.5014556695384080e+01 -2.7839234036281049e+01 -3.6191528249585083e+01 11 8 0
13389 2469 57 -8.1999999999999995e-01 -1.3264121684275143e+01 -2.3011717077485493e+01 -3.4026992780781811e+01 3 7 0
13390 2469 58 4.0999999999999998e-01 -1.2816729151501647e+01 -2.3898591041012242e+01 -3.4142300358258936e+01 3 7 0
7985 667 58 4.0999999999999998e-01 -1.5047918673179781e+01 -2.6379686479892992e+01 -3.4795072944634200e+01 -5 0 1
7983 667 57 -8.1999999999999995e-01 -1.4946100275254867e+01 -2.6794946278554988e+01 -3.5699073083717458e+01 -5 0 1
10854 1624 57 -8.1999999999999995e-01 -2.5345065662853440e+01 -2.8077319236362513e+01 -3.7104821265603661e+01 11 8 0
9613 1210 58 4.0999999999999998e-01 -1.3011431769511876e+01 -2.0436041089074280e+01 -3.1206741979855419e+01 11 1 1
12287 2101 58 4.0999999999999998e-01 -1.2419191574977726e+01 -2.6156386829549557e+01 -3.0052080113249040e+01 -4 5 0
7984 667 58 4.0999999999999998e-01 -1.5828886213759764e+01 -2.6792598601039572e+01 -3.6168849846261722e+01 -5 0 1
10828 1615 58 4.0999999999999998e-01 -2.1339582387393957e+01 -9.7979067325864975e+00 -3.6220675618135175e+01 2 -1 0
13616 2544 58 4.0999999999999998e-01 -1.2697615938971962e+01 -2.6485968058691693e+01 -3.3626022580987723e+01 -7 -6 0
7064 360 58 4.0999999999999998e-01 -2.1996620865113915e+01 -2.6197957793114099e+01 -3.7342768698506134e+01 2 3 1
12285 2101 57 -8.1999999999999995e-01 -1.2182913064054866e+01 -2.6638375829323390e+01 -2.9208350099679215e+01 -4 5 0
8946 988 57 -8.1999999999999995e-01 -1.8377730589145028e+01 -1.8202795607645253e+01 -3.5785829000140019e+01 0 4 1
7642 553 58 4.0999999999999998e-01 -2.0843414678400386e+01 -1.8541642351803240e+01 -3.0132354482404573e+01 -8 2 1
8947 988 58 4.0999999999999998e-01 -1.7899643175358584e+01 -1.7565797559810211e+01 -3.6390541394081794e+01 0 4 1
7062 360 57 -8.1999999999999995e-01 -2.2286815555760949e+01 -2.5728268930858007e+01 -3.6508981967238242e+01 2 3 1
7428 482 57 -8.1999999999999995e-01 -8.0069696606747698e-01 -9.1667788827675949e+00 -2.3496832951106860e+01 5 1 1
11071 1696 58 4.0999999999999998e-01 -1.3935186703537100e+01 -2.0591163741759953e+01 -3.6661765473806049e+01 2 -2 0
11070 1696 57 -8.1999999999999995e-01 -1.3818616652448425e+01 -2.0138396272493601e+01 -3.5777776506306424e+01 2 -2 0
6688 235 58 4.0999999999999998e-01 -2.5017939767628597e+01 -2.7545806366647177e+01 -3.1640020716010881e+01 -2 9 1
12833 2283 58 4.0999999999999998e-01 -2.0942162522474629e+01 -2.7863384765800980e+01 -2.9865551981415393e+01 -4 8 0
4595 86 15 2.9999999999999999e-01 -1.4178248602691945e+00 -1.5357504954672715e-01 -3.0102287043154487e+01 0 0 0
11072 1696 58 4.0999999999999998e-01 -1.4234422001676535e+01 -2.0696315650673100e+01 -3.5059551083602173e+01 2 -2 0
11032 1683 58 4.0999999999999998e-01 -3.5128094741904228e+00 -1.8440670204049106e+01 -3.7100472527574560e+01 -7 8 0
7063 360 58 4.0999999999999998e-01 -2.3187443542295732e+01 -2.5318254849598642e+01 -3.6653064146068274e+01 2 3 1
11677 1898 58 4.0999999999999998e-01 -1.8316463023705357e+01 -8.7956298652752594e+00 -3.7391752449583905e+01 -3 -4 0
10277 1431 58 4.0999999999999998e-01 -1.9328785546533609e+01 -2.0819150728672824e+01 -3.7485163915399433e+01 -4 1 0
3441 64 15 0.0000000000000000e+00 -1.3910057266094558e+01 -2.8140236039081739e+01 -1.9514602430022041e+01 0 0 0
6689 235 58 4.0999999999999998e-01 -2.5015483197277558e+01 -2.7706575321937986e+01 -3.0014647160378448e+01 -2 9 1
11491 1836 58 4.0999999999999998e-01 -1.4779283349061565e+00 -2.8173792139197310e+01 -3.7879374957963769e+01 3 -1 0
11246 1754 58 4.0999999999999998e-01 -1.2394538969751814e+01 -2.0923484011040138e+01 -3.8093875815813490e+01 -13 6 0
10479 1499 57 -8.1999999999999995e-01 -8.4684117492872737e+00 -2.6189532812365957e+01 -3.4588553600634953e+01 3 -5 0
13614 2544 57 -8.1999999999999995e-01 -1.2242371621571532e+01 -2.5900676218309513e+01 -3.4296992132560746e+01 -7 -6 0
13615 2544 58 4.0999999999999998e-01 -1.1853006848561584e+01 -2.6466438412999377e+01 -3.5023851103466058e+01 -7 -6 0
13391 2469 58 4.0999999999999998e-01 -1.2594632889377813e+01 -2.2280555907975085e+01 -3.4158100535621593e+01 3 7 0
9841 1286 58 4.0999999999999998e-01 -9.9156578830807742e+00 -2.4727875808571966e+01 -3.2279964002232944e+01 -4 7 1
9614 1210 58 4.0999999999999998e-01 -1.2010703181404310e+01 -1.9994803933634433e+01 -2.9993684212657080e+01 11 1 1
9612 1210 57 -8.1999999999999995e-01 -1.2515944455206352e+01 -1.9671782695610695e+01 -3.0793938525043188e+01 11 1 1
8312 776 58 4.0999999999999998e-01 -1.1098843453937530e+01 -1.9327590469053192e+01 -3.2526031225592497e+01 2 -2 1
9840 1286 57 -8.1999999999999995e-01 -9.6179945964613189e+00 -2.5323880055430440e+01 -3.1534180821693518e+01 -4 7 1
10259 1425 58 4.0999999999999998e-01 -1.1269678509576504e+01 -2.0718255563878451e+01 -3.5961011707447788e+01 -6 5 0
10258 1425 58 4.0999999999999998e-01 -1.0859973812867977e+01 -2.0480682818221062e+01 -3.4397877995555532e+01 -6 5 0
12397 2138 58 4.0999999999999998e-01 -8.7894256024307076e+00 -2.1925167263829497e+01 -3.0183421752478335e+01 6 -4 0
10257 1425 57 -8.1999999999999995e-01 -1.1014924273968223e+01 -2.1169724083307347e+01 -3.5105852213909181e+01 -6 5 0
12975 2331 57 -8.1999999999999995e-01 -8.3127737520168097e+00 -2.1351837817241428e+01 -3.8189370394675180e+01 -1 2 0
9842 1286 58 4.0999999999999998e-01 -9.8181729087119045e+00 -2.4886751795625237e+01 -3.0657328449515205e+01 -4 7 1
12398 2138 58 4.0999999999999998e-01 -1.0021190376765832e+01 -2.2553611730958586e+01 -3.1052587523804458e+01 6 -4 0
12396 2138 57 -8.1999999999999995e-01 -9.6411503656924289e+00 -2.2446801144109788e+01 -3.0133791589419388e+01 6 -4 0
11600 1872 58 4.0999999999999998e-01 -7.2642016757397627e+00 -2.5064079268068774e+01 -3.3450219663544246e+01 -8 5 0
12741 2253 57 -8.1999999999999995e-01 -7.8389708991322777e+00 -2.6391259652112861e+01 -2.9932550144894797e+01 0 2 0
11598 1872 57 -8.1999999999999995e-01 -6.4439755720162601e+00 -2.4668685634432965e+01 -3.3036820289736276e+01 -8 5 0
11599 1872 58 4.0999999999999998e-01 -6.3021343125096472e+00 -2.3745420017159770e+01 -3.3393844794373948e+01 -8 5 0
10615 1544 58 4.0999999999999998e-01 -2.5683025510525503e+00 -2.2929758364413644e+01 -3.2831609360129718e+01 2 0 0
10614 1544 57 -8.1999999999999995e-01 -3.5282944424945875e+00 -2.2746185743602855e+01 -3.3043077711632570e+01 2 0 0
12054 2024 57 -8.1999999999999995e-01 -1.4979290616833048e+00 -2.2073676448727486e+01 -2.9482266023152526e+01 2 7 0
7434 484 57 -8.1999999999999995e-01 -4.2098240824356417e+00 -2.2736065175315186e+01 -2.9460501038154689e+01 -8 0 1
12055 2024 58 4.0999999999999998e-01 -8.8428519465153954e-01 -2.1752117195466965e+01 -3.0203415480474142e+01 2 7 0
7436 484 58 4.0999999999999998e-01 -3.2227929236026469e+00 -2.2636131043040898e+01 -2.9586131771767260e+01 -8 0 1
7903 640 58 4.0999999999999998e-01 -3.5997816592717413e+00 -2.0676814687523368e+01 -3.6527434495160414e+01 0 -1 1
12542 2186 58 4.0999999999999998e-01 -1.3211967903386357e+01 -1.3748839694078539e+01 -3.7018484662492668e+01 4 -2 0
8175 731 57 -8.1999999999999995e-01 -5.4840234016913172e+00 -5.5601155131460800e-01 -3.1337842851030004e+01 -10 4 1
13621 2546 58 4.0999999999999998e-01 -2.0728193864189990e+00 -1.8904647152031679e+01 -3.4324748531506017e+01 10 1 0
13620 2546 57 -8.1999999999999995e-01 -2.4208052786642007e+00 -1.7980734824566241e+01 -3.4483786956005204e+01 10 1 0
13622 2546 58 4.0999999999999998e-01 -1.7927306941266501e+00 -1.7313854012515527e+01 -3.4082791063274897e+01 10 1 0
7902 640 57 -8.1999999999999995e-01 -4.0633242065809760e+00 -2.1291055835015491e+01 -3.5888804790318858e+01 0 -1 1
7904 640 58 4.0999999999999998e-01 -3.7392816511423810e+00 -2.2226418637187077e+01 -3.6030556602394583e+01 0 -1 1
10616 1544 58 4.0999999999999998e-01 -3.5871983400847718e+00 -2.2000953955739561e+01 -3.3707286357710018e+01 2 0 0
11290 1769 58 4.0999999999999998e-01 -9.6705341578039850e-01 -1.9830168648981545e+01 -3.1233568162560037e+01 -2 -10 0
9920 1312 58 4.0999999999999998e-01 -4.8912797832936796e+00 -2.5761961211068112e+01 -3.3935813212357012e+01 -3 -4 1
9918 1312 57 -8.1999999999999995e-01 -4.4246189047916964e+00 -2.6456406486110247e+01 -3.4483519833836191e+01 -3 -4 1
11990 2002 58 4.0999999999999998e-01 -4.0115557633686798e+00 -2.1061861457273665e+01 -3.1739590859466546e+01 1 -3 0
11989 2002 58 4.0999999999999998e-01 -4.7728676356290833e+00 -1.9934363129056663e+01 -3.2643354845566662e+01 1 -3 0
11988 2002 57 -8.1999999999999995e-01 -4.2253791508277097e+00 -2.0088372408733914e+01 -3.1820823687013217e+01 1 -3 0
9919 1312 58 4.0999999999999998e-01 -4.9700856095683683e+00 -2.6663012268868556e+01 -3.5295800791715024e+01 -3 -4 1
7830 616 57 -8.1999999999999995e-01 -2.9018891494848340e+00 -2.3614562893935755e+01 -3.6128330406259153e+01 1 7 1
11291 1769 58 4.0999999999999998e-01 -2.5665841971699415e+00 -1.9523563981370252e+01 -3.1356489266918871e+01 -2 -10 0
9821 1279 58 4.0999999999999998e-01 -6.6920228234379948e+00 -2.1507205446382518e+01 -3.4189094984506880e+01 -1 5 1
11289 1769 57 -8.1999999999999995e-01 -1.6632554999976534e+00 -1.9112323244508339e+01 -3.1234507675013703e+01 -2 -10 0
9819 1279 57 -8.1999999999999995e-01 -7.2172079136847707e+00 -2.2341142752995722e+01 -3.4358596959921528e+01 -1 5 1
7832 616 58 4.0999999999999998e-01 -2.5252912816474691e+00 -2.4163054860598436e+01 -3.6874887029406658e+01 1 7 1
9820 1279 58 4.0999999999999998e-01 -7.1294129985000296e+00 -2.2601268657665308e+01 -3.5320186405412393e+01 -1 5 1
12742 2253 58 4.0999999999999998e-01 -6.8823052607027648e+00 -2.6111788284939450e+01 -3.0014323260966975e+01 0 2 0
13165 2394 58 4.0999999999999998e-01 -6.6342427768036103e+00 -2.1628307272699224e+01 -3.0763613397387033e+01 -4 0 0
12652 2223 58 4.0999999999999998e-01 -1.0616327474060579e+01 -2.1524686221822400e+01 -2.8963763140209931e+01 2 5 0
12059 2025 58 4.0999999999999998e-01 -1.0285408181297891e+01 -2.2502480859064129e+01 -3.3728714579224821e+01 -8 0 0
12057 2025 57 -8.1999999999999995e-01 -9.6843134828323194e+00 -2.2765433235076920e+01 -3.2974023801860319e+01 -8 0 0
12058 2025 58 4.0999999999999998e-01 -8.7494146677228919e+00 -2.2472382997929184e+01 -3.3174240700229717e+01 -8 0 0
4811 90 15 2.9999999999999999e-01 -8.8497468866420825e-01 -2.7907440344976020e+01 -2.4699209613054105e+01 0 0 0
12651 2223 57 -8.1999999999999995e-01 -1.1188816330846933e+01 -2.0752756339292254e+01 -2.8687386951514739e+01 2 5 0
13164 2394 57 -8.1999999999999995e-01 -7.4423716960888946e+00 -2.1142248533852186e+01 -3.0430930388997325e+01 -4 0 0
13166 2394 58 4.0999999999999998e-01 -7.6286965762002268e+00 -2.0359162929104787e+01 -3.1024286139371398e+01 -4 0 0
9822 1280 57 -8.1999999999999995e-01 -6.9034451618524848e+00 -2.3629487363080074e+01 -3.7206319402625184e+01 2 9 1
9824 1280 58 4.0999999999999998e-01 -7.2852014856567777e+00 -2.2768704956594576e+01 -3.7542949088789889e+01 2 9 1
11454 1824 57 -8.1999999999999995e-01 -2.3144948221003041e+00 -2.5871977486872520e+01 -3.1129980001825189e+01 -7 6 0
12977 2331 58 4.0999999999999998e-01 -9.1794898068973332e+00 -2.1742117100797170e+01 -3.7878744782881682e+01 -1 2 0
7476 498 57 -8.1999999999999995e-01 -2.1348928558561369e+00 -2.7538477159095009e+01 -3.3418022517632039e+01 -3 3 1
11456 1824 58 4.0999999999999998e-01 -1.4401523467365394e+00 -2.5599329792226481e+01 -3.0728490355320819e+01 -7 6 0
7478 498 58 4.0999999999999998e-01 -2.0529134980389330e+00 -2.6997467508436689e+01 -3.2580999028718161e+01 -3 3 1
9823 1280 58 4.0999999999999998e-01 -7.3780573148822519e+00 -2.4396575536673851e+01 -3.7637973802783087e+01 2 9 1
7477 498 58 4.0999999999999998e-01 -3.0465823279987845e+00 -2.7412345171216323e+01 -3.3809069447262218e+01 -3 3 1
7831 616 58 4.0999999999999998e-01 -3.1140297987900141e+00 -2.4208199303629996e+01 -3.5352050536038888e+01 1 7 1
11455 1824 58 4.0999999999999998e-01 -3.0052540987879048e+00 -2.5177460656618454e+01 -3.0928736167833769e+01 -7 6 0
11272 1763 58 4.0999999999999998e-01 -5.7355524952107437e+00 -2.4891949091376059e+01 -3.1378481845144883e+01 0 0 0
11271 1763 57 -8.1999999999999995e-01 -5.3674873446813898e+00 -2.5212253610313702e+01 -3.0505581212629892e+01 0 0 0
8310 776 57 -8.1999999999999995e-01 -1.0708649790929973e+01 -1.9239906583322234e+01 -3.3442592788560376e+01 2 -2 1
8800 939 58 4.0999999999999998e-01 -5.7036668961409625e+00 -2.5205140768991729e+01 -3.7277510792246304e+01 2 -7 1
11273 1763 58 4.0999999999999998e-01 -4.8915856642188800e+00 -2.4461051716475872e+01 -3.0048176528295294e+01 0 0 0
8801 939 58 4.0999999999999998e-01 -5.9841881994066632e+00 -2.6814132609075166e+01 -3.7269318934161028e+01 2 -7 1
12743 2253 58 4.0999999999999998e-01 -8.3663669329057946e+00 -2.6001183214752412e+01 -3.0687341640961428e+01 0 2 0
10481 1499 58 4.0999999999999998e-01 -9.2812778870385451e+00 -2.5964833425597554e+01 -3.5125924431731043e+01 3 -5 0
6745 254 58 4.0999999999999998e-01 -5.8317965487567847e+00 -2.7212368375688143e+01 -3.2418173038878749e+01 5 6 1
8799 939 57 -8.1999999999999995e-01 -5.2753595237031163e+00 -2.6108755890663954e+01 -3.7271768923653759e+01 2 -7 1
14017 2678 58 4.0999999999999998e-01 -3.4222766580011523e+00 -2.6439106392020285e+01 -3.7578530806916618e+01 1 6 0
12721 2246 58 4.0999999999999998e-01 -9.9178017557510287e+00 -2.7276093320033556e+01 -3.1977451834773980e+01 1 -7 0
14018 2678 58 4.0999999999999998e-01 -1.8706053716012079e+00 -2.6006227290668988e+01 -3.7847879053191413e+01 1 6 0
12824 2280 58 4.0999999999999998e-01 -2.0115420369529293e+01 -2.7617909709308030e+01 -3.5352836804299109e+01 5 1 0
10082 1366 58 4.0999999999999998e-01 -5.1735901319318707e+00 -2.0502911926527943e+01 -3.4788970416815708e+01 -3 -2 1
8311 776 58 4.0999999999999998e-01 -1.1345301321613302e+01 -1.8740319512971009e+01 -3.4030043017610375e+01 2 -2 1
10081 1366 58 4.0999999999999998e-01 -5.9846038149871710e+00 -1.9205777641289608e+01 -3.4216849641144336e+01 -3 -2 1
10080 1366 57 -8.1999999999999995e-01 -5.6635949313255516e+00 -2.0128142297666074e+01 -3.4001912045587702e+01 -3 -2 1
6818 278 58 4.0999999999999998e-01 -1.6034332904843531e+01 -2.2574099040919364e+00 -3.8018171910526739e+01 -5 1 1
9053 1023 58 4.0999999999999998e-01 -1.3222240420769538e-01 -3.2219404191475789e+00 -3.3139072109074355e+01 -8 0 1
10763 1593 58 4.0999999999999998e-01 -3.5442675280509839e+00 -2.7934047099153968e+01 -2.7936503639334173e+01 6 7 0
8191 736 58 4.0999999999999998e-01 -5.1826909170072497e+00 -2.6621467985942836e+01 -2.8939132104242582e+01 -7 -3 1
13632 2550 57 -8.1999999999999995e-01 -2.4699355602017047e+01 -2.4413166420476738e+01 -3.6670082262481593e+01 3 -1 0
6599 205 58 4.0999999999999998e-01 -9.2097424986585530e+00 -2.7297071766663361e+01 -2.8799872711189437e+01 -7 4 1
10480 1499 58 4.0999999999999998e-01 -7.9092177443048648e+00 -2.6850122512580363e+01 -3.5089483835009204e+01 3 -5 0
11244 1754 57 -8.1999999999999995e-01 -1.1401528918834442e+01 -2.1041479424876471e+01 -3.8096727090303489e+01 -13 6 0
14016 2678 57 -8.1999999999999995e-01 -2.4737886366329320e+00 -2.6755906491922413e+01 -3.7575567549477135e+01 1 6 0
7245 421 57 -8.1999999999999995e-01 -2.9716655022211214e-01 -1.5108297094859044e+01 -3.5957795993930176e+01 -4 7 1
10676 1564 58 4.0999999999999998e-01 -1.1271823016406550e+00 -1.3587627631341372e+01 -2.8550481502164619e+01 2 9 0
7316 444 58 4.0999999999999998e-01 -1.0467262822377792e+01 -2.7310871095164028e+01 -3.7111347649471924e+01 -13 0 1
4608 86 15 0.0000000000000000e+00 -3.7884943521248676e-01 -2.0110781679596688e+00 -1.9781370815244550e+01 0 0 0
5870 109 15 0.0000000000000000e+00 -3.1470799001751315e-01 -2.1549679416542883e+01 -2.0068095524931671e+01 0 0 0
13210 2409 58 4.0999999999999998e-01 -2.5082496812534011e+01 -1.1092939705815077e+01 -3.1582514235494266e+01 10 -3 0
11781 1933 57 -8.1999999999999995e-01 -1.7550596419967789e+01 -1.6659277376162258e+01 -3.8200461642689476e+01 -3 -1 0
8339 785 58 4.0999999999999998e-01 -3.5755764813520230e-01 -9.2743751975278101e+00 -2.1029718731465948e+01 -3 -4 1
10681 1566 58 4.0999999999999998e-01 -2.5338477402200184e+01 -1.5440346351863214e+01 -3.6901424042473195e+01 -2 6 0
10682 1566 58 4.0999999999999998e-01 -2.4695076148549390e+01 -1.6734085757400706e+01 -3.7662938276121409e+01 -2 6 0
13476 2498 57 -8.1999999999999995e-01 -1.7526417347222647e+01 -1.4192831769628526e+01 -3.6289224103158794e+01 -5 3 0
13149 2389 57 -8.1999999999999995e-01 -1.7067845023493970e+01 -1.7022033356932511e+01 -3.3322246098112046e+01 -1 1 0
13150 2389 58 4.0999999999999998e-01 -1.7342721629358216e+01 -1.7443145355837501e+01 -3.4186612777877784e+01 -1 1 0
13192 2403 58 4.0999999999999998e-01 -2.1945383618161031e+01 -1.5820962637312466e+01 -3.6562205493757034e+01 -4 1 0
11485 1834 58 4.0999999999999998e-01 -2.4145844004229300e+01 -1.1993251445773886e+01 -2.9654686728993383e+01 1 -7 0
11486 1834 58 4.0999999999999998e-01 -2.3438040309011619e+01 -1.0561229032772040e+01 -2.9995191513344956e+01 1 -7 0
11484 1834 57 -8.1999999999999995e-01 -2.4127026853101654e+01 -1.1222593460776366e+01 -3.0291667659672019e+01 1 -7 0
7538 518 58 4.0999999999999998e-01 -2.3778445635576549e+01 -1.0323442437909705e+01 -3.3253161175531410e+01 2 5 1
7536 518 57 -8.1999999999999995e-01 -2.3034283671943943e+01 -1.0077861298628616e+01 -3.3874389734349684e+01 2 5 1
7643 553 58 4.0999999999999998e-01 -2.1758265478436218e+01 -1.7695596627004065e+01 -3.1188243769221238e+01 -8 2 1
9000 1006 57 -8.1999999999999995e-01 -2.2151404861790944e+01 -9.6620603015464752e+00 -2.9283356730926069e+01 -13 2 1
10492 1503 58 4.0999999999999998e-01 -2.2608863148461957e+01 -1.2482454018495291e+01 -3.4559275630765320e+01 3 2 0
10491 1503 57 -8.1999999999999995e-01 -2.1925811245386452e+01 -1.2972518925050110e+01 -3.4017717336122516e+01 3 2 0
10493 1503 58 4.0999999999999998e-01 -2.1632854715970410e+01 -1.3791176520154055e+01 -3.4511665310462760e+01 3 2 0
7641 553 57 -8.1999999999999995e-01 -2.1292432026023576e+01 -1.7664739782563839e+01 -3.0303895762084103e+01 -8 2 1