LAMMPS (5 Oct 2015)
LAMMPS (5 Oct 2015)
LAMMPS (5 Oct 2015)
LAMMPS (5 Oct 2015)
Reading data file ...
  orthogonal box = (-25.8501 -28.3005 -38.3301) to (25.8501 28.3005 38.3301)
  2 by 2 by 4 MPI processor grid
  reading atoms ...
Reading data file ...
  orthogonal box = (-25.8501 -28.3005 -38.2418) to (25.8501 28.3005 38.2418)
  2 by 2 by 4 MPI processor grid
  reading atoms ...
Reading data file ...
  14048 atoms
Reading data file ...
  reading velocities ...
  14048 velocities
  scanning bonds ...
  orthogonal box = (-25.8501 -28.3005 -38.3628) to (25.8501 28.3005 38.3628)
  14048 atoms
  orthogonal box = (-25.8501 -28.3005 -38.453) to (25.8501 28.3005 38.453)
  2 by 2 by 4 MPI processor grid
  3 = max bonds/atom
  scanning angles ...
  reading atoms ...
  2 by 2 by 4 MPI processor grid
  reading velocities ...
  reading atoms ...
  6 = max angles/atom
  scanning dihedrals ...
  14048 velocities
  scanning bonds ...
  2 = max dihedrals/atom
  scanning impropers ...
  3 = max bonds/atom
  scanning angles ...
  2 = max impropers/atom
  reading bonds ...
  6 = max angles/atom
  scanning dihedrals ...
  11360 bonds
  reading angles ...
  2 = max dihedrals/atom
  scanning impropers ...
  14048 atoms
  14048 atoms
  9680 angles
  reading dihedrals ...
  2 = max impropers/atom
  reading bonds ...
  reading velocities ...
  reading velocities ...
  5536 dihedrals
  reading impropers ...
  14048 velocities
  scanning bonds ...
  336 impropers
  11360 bonds
  reading angles ...
Finding 1-2 1-3 1-4 neighbors ...
 Special bond factors lj:   0          0          1         
 Special bond factors coul: 0          0          1         
  14048 velocities
  scanning bonds ...
  3 = max bonds/atom
  scanning angles ...
  9680 angles
  reading dihedrals ...
  3 = max bonds/atom
  scanning angles ...
  6 = max angles/atom
  scanning dihedrals ...
  5536 dihedrals
  reading impropers ...
  6 = max angles/atom
  scanning dihedrals ...
  336 impropers
Finding 1-2 1-3 1-4 neighbors ...
 Special bond factors lj:   0          0          1         
 Special bond factors coul: 0          0          1         
  4 = max # of 1-2 neighbors
  4 = max # of 1-3 neighbors
  6 = max # of special neighbors
7680 atoms in group water
Rank 5 [Thu Oct 27 15:23:59 2016] [c2-1c0s7n0] application called MPI_Abort(MPI_COMM_WORLD, 1) - process 5
Rank 1 [Thu Oct 27 15:23:59 2016] [c2-1c0s7n0] application called MPI_Abort(MPI_COMM_WORLD, 1) - process 1
Rank 10 [Thu Oct 27 15:23:59 2016] [c2-1c0s7n0] application called MPI_Abort(MPI_COMM_WORLD, 1) - process 10
Rank 12 [Thu Oct 27 15:23:59 2016] [c2-1c0s7n0] application called MPI_Abort(MPI_COMM_WORLD, 1) - process 12
Rank 14 [Thu Oct 27 15:23:59 2016] [c2-1c0s7n0] application called MPI_Abort(MPI_COMM_WORLD, 1) - process 14
Rank 7 [Thu Oct 27 15:23:59 2016] [c2-1c0s7n0] application called MPI_Abort(MPI_COMM_WORLD, 1) - process 7
Rank 8 [Thu Oct 27 15:23:59 2016] [c2-1c0s7n0] application called MPI_Abort(MPI_COMM_WORLD, 1) - process 8
Rank 3 [Thu Oct 27 15:23:59 2016] [c2-1c0s7n0] application called MPI_Abort(MPI_COMM_WORLD, 1) - process 3
Rank 13 [Thu Oct 27 15:23:59 2016] [c2-1c0s7n0] application called MPI_Abort(MPI_COMM_WORLD, 1) - process 13
Rank 6 [Thu Oct 27 15:23:59 2016] [c2-1c0s7n0] application called MPI_Abort(MPI_COMM_WORLD, 1) - process 6
Rank 0 [Thu Oct 27 15:23:59 2016] [c2-1c0s7n0] application called MPI_Abort(MPI_COMM_WORLD, 1) - process 0
Rank 2 [Thu Oct 27 15:23:59 2016] [c2-1c0s7n0] application called MPI_Abort(MPI_COMM_WORLD, 1) - process 2
Rank 11 [Thu Oct 27 15:23:59 2016] [c2-1c0s7n0] application called MPI_Abort(MPI_COMM_WORLD, 1) - process 11
Rank 15 [Thu Oct 27 15:23:59 2016] [c2-1c0s7n0] application called MPI_Abort(MPI_COMM_WORLD, 1) - process 15
ERROR on proc 5: Substitution for illegal variable (../input.cpp:530)
ERROR on proc 3: Substitution for illegal variable (../input.cpp:530)
ERROR on proc 13: Substitution for illegal variable (../input.cpp:530)
ERROR on proc 8: Substitution for illegal variable (../input.cpp:530)
ERROR on proc 1: Substitution for illegal variable (../input.cpp:530)
ERROR on proc 12: Substitution for illegal variable (../input.cpp:530)
ERROR on proc 10: Substitution for illegal variable (../input.cpp:530)
ERROR on proc 14: Substitution for illegal variable (../input.cpp:530)
ERROR on proc 7: Substitution for illegal variable (../input.cpp:530)
ERROR on proc 0: Substitution for illegal variable (../input.cpp:530)
ERROR on proc 6: Substitution for illegal variable (../input.cpp:530)
ERROR on proc 2: Substitution for illegal variable (../input.cpp:530)
ERROR on proc 11: Substitution for illegal variable (../input.cpp:530)
ERROR on proc 15: Substitution for illegal variable (../input.cpp:530)
ERROR on proc 4: Substitution for illegal variable (../input.cpp:530)
ERROR on proc 9: Substitution for illegal variable (../input.cpp:530)
Rank 4 [Thu Oct 27 15:23:59 2016] [c2-1c0s7n0] application called MPI_Abort(MPI_COMM_WORLD, 1) - process 4
Rank 9 [Thu Oct 27 15:23:59 2016] [c2-1c0s7n0] application called MPI_Abort(MPI_COMM_WORLD, 1) - process 9
_pmiu_daemon(SIGCHLD): [NID 00816] [c2-1c0s7n0] [Thu Oct 27 15:23:59 2016] PE RANK 1 exit signal Aborted
[NID 00816] 2016-10-27 15:23:59 Apid 12502941: initiated application termination
  4 = max # of 1-2 neighbors
  2 = max dihedrals/atom
  scanning impropers ...
  4 = max # of 1-3 neighbors
  2 = max dihedrals/atom
  scanning impropers ...
  2 = max impropers/atom
  6 = max # of special neighbors
  2 = max impropers/atom
  reading bonds ...
7680 atoms in group water
Rank 0 [Thu Oct 27 15:23:59 2016] [c4-1c0s6n3] application called MPI_Abort(MPI_COMM_WORLD, 1) - process 0
Rank 1 [Thu Oct 27 15:23:59 2016] [c4-1c0s6n3] application called MPI_Abort(MPI_COMM_WORLD, 1) - process 1
Rank 6 [Thu Oct 27 15:23:59 2016] [c4-1c0s6n3] application called MPI_Abort(MPI_COMM_WORLD, 1) - process 6
Rank 3 [Thu Oct 27 15:23:59 2016] [c4-1c0s6n3] application called MPI_Abort(MPI_COMM_WORLD, 1) - process 3
Rank 14 [Thu Oct 27 15:23:59 2016] [c4-1c0s6n3] application called MPI_Abort(MPI_COMM_WORLD, 1) - process 14
Rank 15 [Thu Oct 27 15:23:59 2016] [c4-1c0s6n3] application called MPI_Abort(MPI_COMM_WORLD, 1) - process 15
Rank 11 [Thu Oct 27 15:23:59 2016] [c4-1c0s6n3] application called MPI_Abort(MPI_COMM_WORLD, 1) - process 11
Rank 5 [Thu Oct 27 15:23:59 2016] [c4-1c0s6n3] application called MPI_Abort(MPI_COMM_WORLD, 1) - process 5
Rank 4 [Thu Oct 27 15:23:59 2016] [c4-1c0s6n3] application called MPI_Abort(MPI_COMM_WORLD, 1) - process 4
Rank 2 [Thu Oct 27 15:23:59 2016] [c4-1c0s6n3] application called MPI_Abort(MPI_COMM_WORLD, 1) - process 2
ERROR on proc 0: Substitution for illegal variable (../input.cpp:530)
ERROR on proc 4: Substitution for illegal variable (../input.cpp:530)
ERROR on proc 15: Substitution for illegal variable (../input.cpp:530)
ERROR on proc 14: Substitution for illegal variable (../input.cpp:530)
ERROR on proc 11: Substitution for illegal variable (../input.cpp:530)
ERROR on proc 6: Substitution for illegal variable (../input.cpp:530)
ERROR on proc 1: Substitution for illegal variable (../input.cpp:530)
ERROR on proc 2: Substitution for illegal variable (../input.cpp:530)
ERROR on proc 3: Substitution for illegal variable (../input.cpp:530)
ERROR on proc 5: Substitution for illegal variable (../input.cpp:530)
ERROR on proc 10: Substitution for illegal variable (../input.cpp:530)
ERROR on proc 7: Substitution for illegal variable (../input.cpp:530)
ERROR on proc 12: Substitution for illegal variable (../input.cpp:530)
ERROR on proc 13: Substitution for illegal variable (../input.cpp:530)
ERROR on proc 9: Substitution for illegal variable (../input.cpp:530)
ERROR on proc 8: Substitution for illegal variable (../input.cpp:530)
  reading bonds ...
Rank 10 [Thu Oct 27 15:23:59 2016] [c4-1c0s6n3] application called MPI_Abort(MPI_COMM_WORLD, 1) - process 10
Rank 13 [Thu Oct 27 15:23:59 2016] [c4-1c0s6n3] application called MPI_Abort(MPI_COMM_WORLD, 1) - process 13
Rank 7 [Thu Oct 27 15:23:59 2016] [c4-1c0s6n3] application called MPI_Abort(MPI_COMM_WORLD, 1) - process 7
Rank 12 [Thu Oct 27 15:23:59 2016] [c4-1c0s6n3] application called MPI_Abort(MPI_COMM_WORLD, 1) - process 12
Rank 9 [Thu Oct 27 15:23:59 2016] [c4-1c0s6n3] application called MPI_Abort(MPI_COMM_WORLD, 1) - process 9
Rank 8 [Thu Oct 27 15:23:59 2016] [c4-1c0s6n3] application called MPI_Abort(MPI_COMM_WORLD, 1) - process 8
  11360 bonds
  reading angles ...
_pmiu_daemon(SIGCHLD): [NID 02259] [c4-1c0s6n3] [Thu Oct 27 15:23:59 2016] PE RANK 14 exit signal Aborted
[NID 02259] 2016-10-27 15:23:59 Apid 12502939: initiated application termination
  11360 bonds
  reading angles ...
  9680 angles
  reading dihedrals ...
  9680 angles
  reading dihedrals ...
  5536 dihedrals
  reading impropers ...
  336 impropers
  5536 dihedrals
  reading impropers ...
Finding 1-2 1-3 1-4 neighbors ...
 Special bond factors lj:   0          0          1         
 Special bond factors coul: 0          0          1         
  336 impropers
Finding 1-2 1-3 1-4 neighbors ...
 Special bond factors lj:   0          0          1         
 Special bond factors coul: 0          0          1         
  4 = max # of 1-2 neighbors
  4 = max # of 1-3 neighbors
  6 = max # of special neighbors
7680 atoms in group water
Rank 2 [Thu Oct 27 15:23:59 2016] [c6-1c0s6n2] application called MPI_Abort(MPI_COMM_WORLD, 1) - process 2
Rank 7 [Thu Oct 27 15:23:59 2016] [c6-1c0s6n2] application called MPI_Abort(MPI_COMM_WORLD, 1) - process 7
Rank 5 [Thu Oct 27 15:23:59 2016] [c6-1c0s6n2] application called MPI_Abort(MPI_COMM_WORLD, 1) - process 5
Rank 13 [Thu Oct 27 15:23:59 2016] [c6-1c0s6n2] application called MPI_Abort(MPI_COMM_WORLD, 1) - process 13
Rank 1 [Thu Oct 27 15:23:59 2016] [c6-1c0s6n2] application called MPI_Abort(MPI_COMM_WORLD, 1) - process 1
Rank 10 [Thu Oct 27 15:23:59 2016] [c6-1c0s6n2] application called MPI_Abort(MPI_COMM_WORLD, 1) - process 10
Rank 11 [Thu Oct 27 15:23:59 2016] [c6-1c0s6n2] application called MPI_Abort(MPI_COMM_WORLD, 1) - process 11
Rank 15 [Thu Oct 27 15:23:59 2016] [c6-1c0s6n2] application called MPI_Abort(MPI_COMM_WORLD, 1) - process 15
Rank 6 [Thu Oct 27 15:23:59 2016] [c6-1c0s6n2] application called MPI_Abort(MPI_COMM_WORLD, 1) - process 6
Rank 14 [Thu Oct 27 15:23:59 2016] [c6-1c0s6n2] application called MPI_Abort(MPI_COMM_WORLD, 1) - process 14
Rank 9 [Thu Oct 27 15:23:59 2016] [c6-1c0s6n2] application called MPI_Abort(MPI_COMM_WORLD, 1) - process 9
Rank 4 [Thu Oct 27 15:23:59 2016] [c6-1c0s6n2] application called MPI_Abort(MPI_COMM_WORLD, 1) - process 4
Rank 0 [Thu Oct 27 15:23:59 2016] [c6-1c0s6n2] application called MPI_Abort(MPI_COMM_WORLD, 1) - process 0
Rank 8 [Thu Oct 27 15:23:59 2016] [c6-1c0s6n2] application called MPI_Abort(MPI_COMM_WORLD, 1) - process 8
Rank 12 [Thu Oct 27 15:23:59 2016] [c6-1c0s6n2] application called MPI_Abort(MPI_COMM_WORLD, 1) - process 12
ERROR on proc 2: Substitution for illegal variable (../input.cpp:530)
ERROR on proc 1: Substitution for illegal variable (../input.cpp:530)
ERROR on proc 3: Substitution for illegal variable (../input.cpp:530)
ERROR on proc 6: Substitution for illegal variable (../input.cpp:530)
ERROR on proc 9: Substitution for illegal variable (../input.cpp:530)
ERROR on proc 14: Substitution for illegal variable (../input.cpp:530)
ERROR on proc 15: Substitution for illegal variable (../input.cpp:530)
ERROR on proc 11: Substitution for illegal variable (../input.cpp:530)
ERROR on proc 5: Substitution for illegal variable (../input.cpp:530)
ERROR on proc 7: Substitution for illegal variable (../input.cpp:530)
ERROR on proc 13: Substitution for illegal variable (../input.cpp:530)
ERROR on proc 8: Substitution for illegal variable (../input.cpp:530)
ERROR on proc 12: Substitution for illegal variable (../input.cpp:530)
ERROR on proc 10: Substitution for illegal variable (../input.cpp:530)
ERROR on proc 4: Substitution for illegal variable (../input.cpp:530)
ERROR on proc 0: Substitution for illegal variable (../input.cpp:530)
Rank 3 [Thu Oct 27 15:23:59 2016] [c6-1c0s6n2] application called MPI_Abort(MPI_COMM_WORLD, 1) - process 3
_pmiu_daemon(SIGCHLD): [NID 02348] [c6-1c0s6n2] [Thu Oct 27 15:23:59 2016] PE RANK 2 exit signal Aborted
[NID 02348] 2016-10-27 15:23:59 Apid 12502938: initiated application termination
  4 = max # of 1-2 neighbors
  4 = max # of 1-3 neighbors
  6 = max # of special neighbors
7680 atoms in group water
ERROR on proc 7: Substitution for illegal variable (../input.cpp:530)
ERROR on proc 1: Substitution for illegal variable (../input.cpp:530)
ERROR on proc 0: Substitution for illegal variable (../input.cpp:530)
ERROR on proc 5: Substitution for illegal variable (../input.cpp:530)
ERROR on proc 10: Substitution for illegal variable (../input.cpp:530)
ERROR on proc 8: Substitution for illegal variable (../input.cpp:530)
ERROR on proc 6: Substitution for illegal variable (../input.cpp:530)
ERROR on proc 14: Substitution for illegal variable (../input.cpp:530)
ERROR on proc 12: Substitution for illegal variable (../input.cpp:530)
ERROR on proc 11: Substitution for illegal variable (../input.cpp:530)
ERROR on proc 9: Substitution for illegal variable (../input.cpp:530)
ERROR on proc 13: Substitution for illegal variable (../input.cpp:530)
ERROR on proc 3: Substitution for illegal variable (../input.cpp:530)
ERROR on proc 2: Substitution for illegal variable (../input.cpp:530)
ERROR on proc 4: Substitution for illegal variable (../input.cpp:530)
ERROR on proc 15: Substitution for illegal variable (../input.cpp:530)
Rank 0 [Thu Oct 27 15:23:59 2016] [c4-1c0s6n2] application called MPI_Abort(MPI_COMM_WORLD, 1) - process 0
Rank 7 [Thu Oct 27 15:23:59 2016] [c4-1c0s6n2] application called MPI_Abort(MPI_COMM_WORLD, 1) - process 7
Rank 1 [Thu Oct 27 15:23:59 2016] [c4-1c0s6n2] application called MPI_Abort(MPI_COMM_WORLD, 1) - process 1
Rank 10 [Thu Oct 27 15:23:59 2016] [c4-1c0s6n2] application called MPI_Abort(MPI_COMM_WORLD, 1) - process 10
Rank 11 [Thu Oct 27 15:23:59 2016] [c4-1c0s6n2] application called MPI_Abort(MPI_COMM_WORLD, 1) - process 11
Rank 6 [Thu Oct 27 15:23:59 2016] [c4-1c0s6n2] application called MPI_Abort(MPI_COMM_WORLD, 1) - process 6
Rank 5 [Thu Oct 27 15:23:59 2016] [c4-1c0s6n2] application called MPI_Abort(MPI_COMM_WORLD, 1) - process 5
Rank 13 [Thu Oct 27 15:23:59 2016] [c4-1c0s6n2] application called MPI_Abort(MPI_COMM_WORLD, 1) - process 13
Rank 8 [Thu Oct 27 15:23:59 2016] [c4-1c0s6n2] application called MPI_Abort(MPI_COMM_WORLD, 1) - process 8
Rank 9 [Thu Oct 27 15:23:59 2016] [c4-1c0s6n2] application called MPI_Abort(MPI_COMM_WORLD, 1) - process 9
Rank 4 [Thu Oct 27 15:23:59 2016] [c4-1c0s6n2] application called MPI_Abort(MPI_COMM_WORLD, 1) - process 4
Rank 14 [Thu Oct 27 15:23:59 2016] [c4-1c0s6n2] application called MPI_Abort(MPI_COMM_WORLD, 1) - process 14
Rank 3 [Thu Oct 27 15:23:59 2016] [c4-1c0s6n2] application called MPI_Abort(MPI_COMM_WORLD, 1) - process 3
Rank 12 [Thu Oct 27 15:23:59 2016] [c4-1c0s6n2] application called MPI_Abort(MPI_COMM_WORLD, 1) - process 12
Rank 2 [Thu Oct 27 15:23:59 2016] [c4-1c0s6n2] application called MPI_Abort(MPI_COMM_WORLD, 1) - process 2
Rank 15 [Thu Oct 27 15:23:59 2016] [c4-1c0s6n2] application called MPI_Abort(MPI_COMM_WORLD, 1) - process 15
_pmiu_daemon(SIGCHLD): [NID 02258] [c4-1c0s6n2] [Thu Oct 27 15:23:59 2016] PE RANK 1 exit signal Aborted
[NID 02258] 2016-10-27 15:23:59 Apid 12502940: initiated application termination
Application 12502941 exit codes: 134
Application 12502941 resources: utime ~1s, stime ~2s, Rss ~14188, inblocks ~8325, outblocks ~25296
Application 12502939 exit codes: 134
Application 12502939 resources: utime ~1s, stime ~2s, Rss ~14268, inblocks ~8330, outblocks ~25296
Application 12502940 exit codes: 134
Application 12502940 resources: utime ~1s, stime ~2s, Rss ~14196, inblocks ~8332, outblocks ~25296
Application 12502938 exit codes: 134
Application 12502938 resources: utime ~1s, stime ~2s, Rss ~14228, inblocks ~8332, outblocks ~25297
