LAMMPS (5 Oct 2015)
LAMMPS (5 Oct 2015)
LAMMPS (5 Oct 2015)
LAMMPS (5 Oct 2015)
LAMMPS (5 Oct 2015)
Reading data file ...
  orthogonal box = (-25.8501 -28.3005 -38.3301) to (25.8501 28.3005 38.3301)
  2 by 2 by 4 MPI processor grid
  reading atoms ...
Reading data file ...
Reading data file ...
  orthogonal box = (-25.8501 -28.3005 -38.2418) to (25.8501 28.3005 38.2418)
  orthogonal box = (-25.8501 -28.3005 -38.3628) to (25.8501 28.3005 38.3628)
  2 by 2 by 4 MPI processor grid
  2 by 2 by 4 MPI processor grid
  reading atoms ...
  reading atoms ...
Reading data file ...
  14048 atoms
  orthogonal box = (-25.8501 -28.3005 -38.453) to (25.8501 28.3005 38.453)
  2 by 2 by 4 MPI processor grid
  reading velocities ...
  reading atoms ...
  14048 velocities
  scanning bonds ...
Reading data file ...
  3 = max bonds/atom
  orthogonal box = (-25.8501 -28.3005 -38.5584) to (25.8501 28.3005 38.5584)
  scanning angles ...
  14048 atoms
  14048 atoms
  2 by 2 by 4 MPI processor grid
  reading atoms ...
  reading velocities ...
  reading velocities ...
  6 = max angles/atom
  14048 velocities
  scanning dihedrals ...
  14048 velocities
  scanning bonds ...
  scanning bonds ...
  2 = max dihedrals/atom
  scanning impropers ...
  14048 atoms
  reading velocities ...
  3 = max bonds/atom
  2 = max impropers/atom
  3 = max bonds/atom
  scanning angles ...
  reading bonds ...
  scanning angles ...
  14048 velocities
  scanning bonds ...
  6 = max angles/atom
  6 = max angles/atom
  scanning dihedrals ...
  11360 bonds
  reading angles ...
  scanning dihedrals ...
  14048 atoms
  3 = max bonds/atom
  scanning angles ...
  2 = max dihedrals/atom
  scanning impropers ...
  2 = max dihedrals/atom
  scanning impropers ...
  reading velocities ...
  9680 angles
  2 = max impropers/atom
  6 = max angles/atom
  scanning dihedrals ...
  2 = max impropers/atom
  reading dihedrals ...
  14048 velocities
  scanning bonds ...
  reading bonds ...
  5536 dihedrals
  reading impropers ...
  2 = max dihedrals/atom
  scanning impropers ...
  reading bonds ...
  336 impropers
  2 = max impropers/atom
Finding 1-2 1-3 1-4 neighbors ...
 Special bond factors lj:   0          0          1         
 Special bond factors coul: 0          0          1         
  3 = max bonds/atom
  scanning angles ...
  11360 bonds
  11360 bonds
  reading angles ...
  reading bonds ...
  6 = max angles/atom
  scanning dihedrals ...
  reading angles ...
  9680 angles
  11360 bonds
  reading angles ...
  9680 angles
  2 = max dihedrals/atom
  scanning impropers ...
  reading dihedrals ...
  4 = max # of 1-2 neighbors
  4 = max # of 1-3 neighbors
  6 = max # of special neighbors
7680 atoms in group water
21 atoms in group tracers
7659 atoms in group allbuttracers
6368 atoms in group bilayer
3 atoms in group t1
3 atoms in group t2
3 atoms in group t3
3 atoms in group t4
3 atoms in group t5
3 atoms in group t6
3 atoms in group t7
Finding SHAKE clusters ...
  0 = # of size 2 clusters
  0 = # of size 3 clusters
  0 = # of size 4 clusters
  2560 = # of frozen angles
  reading dihedrals ...
PPPM initialization ...
  5536 dihedrals
  reading impropers ...
  9680 angles
  reading dihedrals ...
  2 = max impropers/atom
  5536 dihedrals
  336 impropers
  reading impropers ...
Finding 1-2 1-3 1-4 neighbors ...
 Special bond factors lj:   0          0          1         
 Special bond factors coul: 0          0          1         
  reading bonds ...
  5536 dihedrals
  reading impropers ...
  336 impropers
  G vector (1/distance) = 0.18032
  grid = 18 18 24
  stencil order = 5
  estimated absolute RMS force accuracy = 0.0281198
  estimated relative force accuracy = 8.46821e-05
  using double precision FFTs
  3d grid and FFT values/proc = 2156 648
  336 impropers
Finding 1-2 1-3 1-4 neighbors ...
 Special bond factors lj:   0          0          1         
 Special bond factors coul: 0          0          1         
Finding 1-2 1-3 1-4 neighbors ...
 Special bond factors lj:   0          0          1         
 Special bond factors coul: 0          0          1         

--------------------------------------------------------------------------
- Using acceleration for pppm:
  11360 bonds
  reading angles ...
-  with 16 proc(s) per device.
--------------------------------------------------------------------------
Device 0: Tesla K20X, 14 CUs, 5.5/5.6 GB, 0.73 GHZ (Mixed Precision)
--------------------------------------------------------------------------

Initializing Device and compiling on process 0...  9680 angles
  reading dihedrals ...
  4 = max # of 1-2 neighbors
  4 = max # of 1-3 neighbors
  6 = max # of special neighbors
7680 atoms in group water
21 atoms in group tracers
7659 atoms in group allbuttracers
6368 atoms in group bilayer
3 atoms in group t1
3 atoms in group t2
3 atoms in group t3
3 atoms in group t4
3 atoms in group t5
3 atoms in group t6
3 atoms in group t7
Finding SHAKE clusters ...
  4 = max # of 1-2 neighbors
  4 = max # of 1-3 neighbors
  6 = max # of special neighbors
7680 atoms in group water
21 atoms in group tracers
7659 atoms in group allbuttracers
6368 atoms in group bilayer
3 atoms in group t1
3 atoms in group t2
3 atoms in group t3
3 atoms in group t4
3 atoms in group t5
3 atoms in group t6
3 atoms in group t7
Finding SHAKE clusters ...
  0 = # of size 2 clusters
  0 = # of size 3 clusters
  0 = # of size 4 clusters
  2560 = # of frozen angles
Done.
Initializing Device 0 on core 0...Done.
Initializing Device 0 on core 1...  0 = # of size 2 clusters
  0 = # of size 3 clusters
  0 = # of size 4 clusters
  2560 = # of frozen angles
  5536 dihedrals
  reading impropers ...
  4 = max # of 1-2 neighbors
  4 = max # of 1-3 neighbors
  6 = max # of special neighbors
7680 atoms in group water
21 atoms in group tracers
7659 atoms in group allbuttracers
6368 atoms in group bilayer
3 atoms in group t1
3 atoms in group t2
3 atoms in group t3
3 atoms in group t4
3 atoms in group t5
3 atoms in group t6
3 atoms in group t7
Finding SHAKE clusters ...
Done.
Initializing Device 0 on core 2...PPPM initialization ...
  G vector (1/distance) = 0.180361
  grid = 18 18 24
  stencil order = 5
  estimated absolute RMS force accuracy = 0.0280706
  estimated relative force accuracy = 8.45338e-05
  using double precision FFTs
  3d grid and FFT values/proc = 2156 648
  336 impropers
Finding 1-2 1-3 1-4 neighbors ...
 Special bond factors lj:   0          0          1         
 Special bond factors coul: 0          0          1         
  0 = # of size 2 clusters
  0 = # of size 3 clusters
  0 = # of size 4 clusters
  2560 = # of frozen angles
  4 = max # of 1-2 neighbors
PPPM initialization ...
PPPM initialization ...
  G vector (1/distance) = 0.180304
  grid = 18 18 24
  stencil order = 5
  estimated absolute RMS force accuracy = 0.0281384
  estimated relative force accuracy = 8.47379e-05
  using double precision FFTs
  3d grid and FFT values/proc = 2156 648
  4 = max # of 1-3 neighbors
  G vector (1/distance) = 0.180262
  grid = 18 18 24
  stencil order = 5
  estimated absolute RMS force accuracy = 0.0281904
  estimated relative force accuracy = 8.48944e-05
  using double precision FFTs
  3d grid and FFT values/proc = 2156 648
Done.
Initializing Device 0 on core 3...
--------------------------------------------------------------------------
- Using acceleration for pppm:

  6 = max # of special neighbors
7680 atoms in group water
Done.
Initializing Device 0 on core 4...21 atoms in group tracers
7659 atoms in group allbuttracers
6368 atoms in group bilayer
3 atoms in group t1
3 atoms in group t2
3 atoms in group t3
3 atoms in group t4
3 atoms in group t5
3 atoms in group t6
3 atoms in group t7

--------------------------------------------------------------------------
- Using acceleration for pppm:
-  with 16 proc(s) per device.
--------------------------------------------------------------------------
-  with 16 proc(s) per device.
--------------------------------------------------------------------------
Device 0: Tesla K20X, 14 CUs, 5.5/5.6 GB, 0.73 GHZ (Mixed Precision)
--------------------------------------------------------------------------

Initializing Device and compiling on process 0...Device 0: Tesla K20X, 14 CUs, 5.5/5.6 GB, 0.73 GHZ (Mixed Precision)
--------------------------------------------------------------------------

Initializing Device and compiling on process 0...Done.
Initializing Device 0 on core 5...--------------------------------------------------------------------------
- Using acceleration for pppm:
-  with 16 proc(s) per device.
--------------------------------------------------------------------------
Device 0: Tesla K20X, 14 CUs, 5.5/5.6 GB, 0.73 GHZ (Mixed Precision)
--------------------------------------------------------------------------

Initializing Device and compiling on process 0...Done.
Initializing Device 0 on core 0...Done.
Initializing Device 0 on core 1...Done.
Initializing Device 0 on core 0...Done.
Initializing Device 0 on core 1...Done.
Done.
Initializing Device 0 on core 2...Initializing Device 0 on core 2...Done.
Initializing Device 0 on core 6...Done.
Initializing Device 0 on core 0...Done.
Initializing Device 0 on core 1...Finding SHAKE clusters ...
  0 = # of size 2 clusters
  0 = # of size 3 clusters
  0 = # of size 4 clusters
  2560 = # of frozen angles
PPPM initialization ...
  G vector (1/distance) = 0.180211
  grid = 18 18 24
  stencil order = 5
  estimated absolute RMS force accuracy = 0.0282527
  estimated relative force accuracy = 8.50822e-05
  using double precision FFTs
  3d grid and FFT values/proc = 2156 648
Done.
Initializing Device 0 on core 2...Done.
Done.
Initializing Device 0 on core 3...Done.
Initializing Device 0 on core 7...Initializing Device 0 on core 3...Done.
Initializing Device 0 on core 3...
--------------------------------------------------------------------------
- Using acceleration for pppm:
-  with 16 proc(s) per device.
--------------------------------------------------------------------------
Device 0: Tesla K20X, 14 CUs, 5.5/5.6 GB, 0.73 GHZ (Mixed Precision)
--------------------------------------------------------------------------

Initializing Device and compiling on process 0...Done.
Done.
Initializing Device 0 on core 4...Done.
Initializing Device 0 on core 8...Done.
Initializing Device 0 on core 0...Done.
Initializing Device 0 on core 1...Done.
Initializing Device 0 on core 4...Initializing Device 0 on core 4...Done.
Initializing Device 0 on core 5...Done.
Initializing Device 0 on core 5...Done.
Initializing Device 0 on core 2...Done.
Initializing Device 0 on core 9...Done.
Initializing Device 0 on core 5...Done.
Initializing Device 0 on core 6...Done.
Initializing Device 0 on core 6...Done.
Initializing Device 0 on core 10...Done.
Initializing Device 0 on core 3...Done.
Initializing Device 0 on core 6...Done.
Initializing Device 0 on core 7...Done.
Initializing Device 0 on core 11...Done.
Initializing Device 0 on core 7...Done.
Initializing Device 0 on core 7...Done.
Initializing Device 0 on core 4...Done.
Initializing Device 0 on core 8...Done.
Initializing Device 0 on core 12...Done.
Initializing Device 0 on core 8...Done.
Initializing Device 0 on core 8...Done.
Initializing Device 0 on core 5...Done.
Initializing Device 0 on core 9...Done.
Initializing Device 0 on core 13...Done.
Initializing Device 0 on core 9...Done.
Initializing Device 0 on core 9...Done.
Initializing Device 0 on core 6...Done.
Done.
Initializing Device 0 on core 10...Done.
Initializing Device 0 on core 14...Initializing Device 0 on core 10...Done.
Initializing Device 0 on core 7...Done.
Initializing Device 0 on core 10...Done.
Done.
Initializing Device 0 on core 11...Done.
Initializing Device 0 on core 15...Initializing Device 0 on core 11...Done.
Initializing Device 0 on core 8...Done.
Initializing Device 0 on core 11...Done.
Done.
Initializing Device 0 on core 12...Done.
Initializing Device 0 on core 12...

--------------------------------------------------------------------------
- Using acceleration for lj/cut/coul/long:
-  with 16 proc(s) per device.
--------------------------------------------------------------------------
Device 0: Tesla K20X, 14 CUs, 5.4/5.6 GB, 0.73 GHZ (Mixed Precision)
--------------------------------------------------------------------------

Initializing Device and compiling on process 0...Done.
Initializing Device 0 on core 9...Done.
Initializing Device 0 on core 12...Done.
Initializing Device 0 on core 0...Done.
Done.
Initializing Device 0 on core 13...Initializing Device 0 on core 13...Done.
Initializing Device 0 on core 10...Done.
Initializing Device 0 on core 1...Done.
Initializing Device 0 on core 2...Done.
Initializing Device 0 on core 3...Done.
Initializing Device 0 on core 13...Done.
Initializing Device 0 on core 4...Done.
Done.
Initializing Device 0 on core 14...Initializing Device 0 on core 14...Done.
Initializing Device 0 on core 11...Done.
Initializing Device 0 on core 14...Done.
Initializing Device 0 on core 15...Done.
Initializing Device 0 on core 15...Done.
Initializing Device 0 on core 5...Done.
Initializing Device 0 on core 6...Done.
Initializing Device 0 on core 7...Done.
Initializing Device 0 on core 8...Done.
Initializing Device 0 on core 9...Done.
Initializing Device 0 on core 12...Done.
Initializing Device 0 on core 10...Done.
Done.
Initializing Device 0 on core 15...Done.
Initializing Device 0 on core 11...

--------------------------------------------------------------------------
- Using acceleration for lj/cut/coul/long:
-  with 16 proc(s) per device.
--------------------------------------------------------------------------
Device 0: Tesla K20X, 14 CUs, 5.4/5.6 GB, 0.73 GHZ (Mixed Precision)
--------------------------------------------------------------------------

Initializing Device and compiling on process 0...Done.


--------------------------------------------------------------------------
- Using acceleration for lj/cut/coul/long:
-  with 16 proc(s) per device.
--------------------------------------------------------------------------
Device 0: Tesla K20X, 14 CUs, 5.4/5.6 GB, 0.73 GHZ (Mixed Precision)
--------------------------------------------------------------------------

Initializing Device and compiling on process 0...Done.
Initializing Device 0 on core 0...Done.
Initializing Device 0 on core 12...Done.
Initializing Device 0 on core 13...Done.
Initializing Device 0 on core 13...Done.
Initializing Device 0 on core 14...Done.


--------------------------------------------------------------------------
- Using acceleration for lj/cut/coul/long:
-  with 16 proc(s) per device.
--------------------------------------------------------------------------
Device 0: Tesla K20X, 14 CUs, 5.4/5.6 GB, 0.73 GHZ (Mixed Precision)
--------------------------------------------------------------------------

Initializing Device and compiling on process 0...Done.
Initializing Device 0 on core 15...Done.

Done.
Initializing Device 0 on core 1...Done.
Initializing Device 0 on core 2...Done.
Initializing Device 0 on core 3...Done.
Initializing Device 0 on core 0...Done.
Initializing Device 0 on core 14...Done.
Initializing Device 0 on core 4...Done.
Initializing Device 0 on core 0...Done.
Initializing Device 0 on core 1...Done.
Initializing Device 0 on core 2...Done.
Initializing Device 0 on core 3...Done.
Initializing Device 0 on core 4...WARNING: Fix recenter should come after all other integration fixes (../fix_recenter.cpp:132)
WARNING: Fix recenter should come after all other integration fixes (../fix_recenter.cpp:132)
Done.
Initializing Device 0 on core 5...WARNING: Fix recenter should come after all other integration fixes (../fix_recenter.cpp:132)
WARNING: Fix recenter should come after all other integration fixes (../fix_recenter.cpp:132)
WARNING: Fix recenter should come after all other integration fixes (../fix_recenter.cpp:132)
WARNING: Fix recenter should come after all other integration fixes (../fix_recenter.cpp:132)
Done.
Initializing Device 0 on core 1...Done.
Initializing Device 0 on core 2...Done.
Initializing Device 0 on core 3...Done.
Initializing Device 0 on core 6...Done.
Initializing Device 0 on core 5...Done.
Initializing Device 0 on core 6...Done.
Initializing Device 0 on core 7...Done.
Initializing Device 0 on core 8...Neighbor list info ...
  0 neighbor list requests
  update every 1 steps, delay 10 steps, check yes
  max neighbors/atom: 2000, page size: 100000
  master list distance cutoff = 16
  ghost atom cutoff = 16
  binsize = 8, bins = 7 8 10
Done.
Initializing Device 0 on core 15...Done.
Initializing Device 0 on core 4...Done.
Initializing Device 0 on core 7...Setting up Verlet run ...
  Unit style  : real
  Current step: 0
  Time step   : 1
Done.
Initializing Device 0 on core 9...Done.
Initializing Device 0 on core 5...Done.
Initializing Device 0 on core 6...Done.
Initializing Device 0 on core 7...Done.

Done.
Initializing Device 0 on core 10...Done.
Initializing Device 0 on core 11...
--------------------------------------------------------------------------
- Using acceleration for lj/cut/coul/long:
-  with 16 proc(s) per device.
--------------------------------------------------------------------------
Device 0: Tesla K20X, 14 CUs, 5.4/5.6 GB, 0.73 GHZ (Mixed Precision)
--------------------------------------------------------------------------

Initializing Device and compiling on process 0...Done.
Initializing Device 0 on core 8...Done.
Initializing Device 0 on core 9...Done.
Initializing Device 0 on core 10...Done.
Initializing Device 0 on core 11...Done.
Initializing Device 0 on core 12...Done.
Initializing Device 0 on core 0...Done.
Initializing Device 0 on core 13...Done.
Initializing Device 0 on core 12...Done.
Initializing Device 0 on core 13...Done.
Initializing Device 0 on core 8...Done.
Initializing Device 0 on core 9...Done.
Initializing Device 0 on core 10...Done.
Initializing Device 0 on core 11...Done.
Initializing Device 0 on core 14...Done.
Initializing Device 0 on core 1...Done.
Initializing Device 0 on core 2...Done.
Initializing Device 0 on core 3...Done.
Initializing Device 0 on core 14...Done.
Initializing Device 0 on core 15...Done.

Done.
Initializing Device 0 on core 15...Done.

Done.
Initializing Device 0 on core 12...Done.
Initializing Device 0 on core 13...Done.
Initializing Device 0 on core 14...Done.
Initializing Device 0 on core 15...WARNING: Fix recenter should come after all other integration fixes (../fix_recenter.cpp:132)
Done.

Done.
Initializing Device 0 on core 4...Done.
Initializing Device 0 on core 5...WARNING: Fix recenter should come after all other integration fixes (../fix_recenter.cpp:132)
WARNING: Fix recenter should come after all other integration fixes (../fix_recenter.cpp:132)
Done.
Initializing Device 0 on core 6...WARNING: Fix recenter should come after all other integration fixes (../fix_recenter.cpp:132)
WARNING: Fix recenter should come after all other integration fixes (../fix_recenter.cpp:132)
WARNING: Fix recenter should come after all other integration fixes (../fix_recenter.cpp:132)
WARNING: Fix recenter should come after all other integration fixes (../fix_recenter.cpp:132)
WARNING: Fix recenter should come after all other integration fixes (../fix_recenter.cpp:132)
WARNING: Fix recenter should come after all other integration fixes (../fix_recenter.cpp:132)
WARNING: Fix recenter should come after all other integration fixes (../fix_recenter.cpp:132)
WARNING: Fix recenter should come after all other integration fixes (../fix_recenter.cpp:132)
WARNING: Fix recenter should come after all other integration fixes (../fix_recenter.cpp:132)
WARNING: Fix recenter should come after all other integration fixes (../fix_recenter.cpp:132)
WARNING: Fix recenter should come after all other integration fixes (../fix_recenter.cpp:132)
WARNING: Fix recenter should come after all other integration fixes (../fix_recenter.cpp:132)
WARNING: Fix recenter should come after all other integration fixes (../fix_recenter.cpp:132)
WARNING: Fix recenter should come after all other integration fixes (../fix_recenter.cpp:132)
WARNING: Fix recenter should come after all other integration fixes (../fix_recenter.cpp:132)
Neighbor list info ...
  0 neighbor list requests
  update every 1 steps, delay 10 steps, check yes
  max neighbors/atom: 2000, page size: 100000
  master list distance cutoff = 16
  ghost atom cutoff = 16
  binsize = 8, bins = 7 8 10
Done.
Initializing Device 0 on core 7...Done.
Initializing Device 0 on core 8...Neighbor list info ...
  0 neighbor list requests
  update every 1 steps, delay 10 steps, check yes
  max neighbors/atom: 2000, page size: 100000
  master list distance cutoff = 16
  ghost atom cutoff = 16
  binsize = 8, bins = 7 8 10
Neighbor list info ...
  0 neighbor list requests
  update every 1 steps, delay 10 steps, check yes
  max neighbors/atom: 2000, page size: 100000
  master list distance cutoff = 16
  ghost atom cutoff = 16
  binsize = 8, bins = 7 8 10
Setting up Verlet run ...
  Unit style  : real
  Current step: 0
  Time step   : 1
Setting up Verlet run ...
  Unit style  : real
Setting up Verlet run ...
  Unit style  : real
  Current step: 0
Done.
Initializing Device 0 on core 9...  Current step: 0
  Time step   : 1
  Time step   : 1
Done.
Initializing Device 0 on core 10...SHAKE stats (type/ave/delta) on step 0
  53 1 8.80481e-06 15360
Done.
Initializing Device 0 on core 11...Done.
Initializing Device 0 on core 12...Done.
Initializing Device 0 on core 13...Done.
Initializing Device 0 on core 14...  55 109.5 0.000738742
Done.
Initializing Device 0 on core 15...Done.

Memory usage per processor = 11.8874 Mbytes
Step Temp E_pair E_mol TotEng Press Volume 
       0    303.05454   -62893.717    7523.6197   -44993.339   -76.270559    224329.81 
WARNING: Fix recenter should come after all other integration fixes (../fix_recenter.cpp:132)
WARNING: Fix recenter should come after all other integration fixes (../fix_recenter.cpp:132)
WARNING: Fix recenter should come after all other integration fixes (../fix_recenter.cpp:132)
WARNING: Fix recenter should come after all other integration fixes (../fix_recenter.cpp:132)
WARNING: Fix recenter should come after all other integration fixes (../fix_recenter.cpp:132)
WARNING: Fix recenter should come after all other integration fixes (../fix_recenter.cpp:132)
Neighbor list info ...
  0 neighbor list requests
  update every 1 steps, delay 10 steps, check yes
  max neighbors/atom: 2000, page size: 100000
  master list distance cutoff = 16
  ghost atom cutoff = 16
  binsize = 8, bins = 7 8 10
Setting up Verlet run ...
  Unit style  : real
  Current step: 0
  Time step   : 1
SHAKE stats (type/ave/delta) on step 0
  53 1.00001 2.56697e-05 15360
SHAKE stats (type/ave/delta) on step 0
  53 1.00001 2.15194e-05 15360
  55 109.5 0.00164495
  55 109.5 0.00208874
Memory usage per processor = 11.8816 Mbytes
Step Temp E_pair E_mol TotEng Press Volume 
Memory usage per processor = 11.8597 Mbytes
Step Temp E_pair E_mol TotEng Press Volume 
       0    306.10873   -62930.019    7584.7961   -44863.887   -122.37353    223812.83 
       0    304.13287   -62986.049    7431.4124   -45140.956    335.54334    224521.33 
SHAKE stats (type/ave/delta) on step 0
  53 0.999995 1.83981e-05 15360
  55 109.5 0.0017559
Memory usage per processor = 11.8637 Mbytes
Step Temp E_pair E_mol TotEng Press Volume 
       0    304.87565   -62704.204    7349.2637   -44915.826     297.2862    225049.21 
SHAKE stats (type/ave/delta) on step 0
  53 0.999998 8.80481e-06 15360
  55 109.5 0.000782902
Memory usage per processor = 11.8593 Mbytes
Step Temp E_pair E_mol TotEng Press Volume 
       0    304.49554   -62731.813    7661.0865   -44644.627   -181.59335    225666.13 
    1000    305.63855   -62949.885    7612.8817   -44871.766   -790.04129    225194.68 
    1000    301.07379   -62912.485     7624.397   -44979.152    280.47949    225133.39 
    1000    300.71473   -62887.042    7619.3474   -44971.052   -519.92639    224205.22 
    1000    303.67986   -62846.643    7633.7644   -44814.709   -88.757344    224379.31 
    1000    305.58565   -62774.095    7599.7258   -44710.944     303.7124     225842.8 
    2000    303.73753   -62727.288    7642.3113   -44684.832   -43.554753    225909.43 
    2000    300.82231    -62862.89    7596.7847   -44965.779   -169.98011    224162.81 
    2000    298.46943   -62823.138    7458.7849   -45144.591      -345.57    224404.16 
    2000     303.6609   -62934.135    7564.4796   -44972.135   -30.349183    224254.93 
    2000    307.10584   -62782.645    7534.1768   -44732.991   -474.31153    225426.79 
    3000    307.46494   -62857.891    7552.7318   -44777.386   -33.789556    224556.04 
    3000    305.20079    -62896.17    7475.8183   -44970.104    270.25339    223750.61 
    3000    304.71046   -62649.958    7416.5036   -44799.996   -125.64212    224872.55 
    3000      304.817   -62864.427    7522.0295   -44905.291    65.423385    226086.17 
    3000    306.21411    -62796.12    7607.9714   -44703.204     244.4803       223323 
    4000    304.32178   -62933.972     7557.935   -44955.887   -216.17727    225950.85 
    4000    305.42337   -62882.525    7485.5296   -44939.127    74.502083    223659.24 
    4000     304.9052    -62810.71    7631.6546   -44738.929    155.29655    224270.18 
    4000    306.79737   -62788.648    7523.6121   -44760.121    72.564472    224542.19 
    4000    305.37632   -62787.191    7535.7106   -44795.222    169.69372    224359.65 
    5000    305.97611   -62759.737    7566.8483   -44716.093   -122.71943    226176.37 
    5000    301.57872   -62956.031     7593.456   -45036.349    261.86663    223835.79 
    5000    305.60066   -62858.252    7520.2761   -44874.037   -363.74939    225098.74 
    5000    302.81206   -62845.625    7505.3923   -44971.777    190.49925    224896.58 
    5000    302.43327   -63071.992    7659.9202   -45056.586   -94.629781    224068.31 
    6000    305.14866   -62875.432    7598.5569   -44828.413   -115.31443    224855.36 
    6000    305.61954   -62820.402    7595.0044   -44760.812    292.42737    224241.55 
    6000    307.13574   -62798.273    7569.3064   -44712.465     332.1559    223869.76 
    6000    303.23292   -62734.267    7564.7903   -44786.611   -688.97812    225284.99 
    6000    301.84375   -62763.963    7532.3258   -44896.337   -124.91524    224355.41 
    7000    302.82891   -62870.667     7447.745   -45053.889    227.02066    223429.98 
    7000    306.71642   -62980.276     7397.047   -45081.085    443.73169    224038.03 
    7000    301.93548    -62873.63    7439.8962   -45095.293   -309.60286    224210.33 
    7000    304.43272   -62841.927    7531.6598   -44886.319   -162.88278    224698.03 
    7000     305.8945   -62859.771    7370.6974   -45015.073    681.20726    223896.99 
    8000    300.57717   -62705.993    7545.2488   -44868.812    393.81989    224145.19 
    8000    305.46592   -62928.429     7523.283    -44945.82     122.7744    223685.06 
    8000    303.94431   -62793.596     7611.107   -44775.264   -167.18415    224457.27 
    8000    304.44167   -63069.429    7533.1359   -45112.039   -67.816601    225168.45 
    8000    302.42826   -62853.077    7579.3541   -44918.409    114.73834    224039.08 
    9000    302.34104   -62841.956    7450.7545   -45038.873      187.434    224076.95 
    9000    301.50817   -62920.241    7628.2071   -44968.223   -145.21305    224458.11 
    9000    301.87124   -62856.421    7684.9862   -44835.193   -147.76925    224869.68 
    9000     298.9101   -62919.234     7443.199   -45241.184   -37.667431     224082.5 
    9000    302.60405   -62743.516    7513.6421    -44868.54    341.38553    224741.35 
SHAKE stats (type/ave/delta) on step 10000
  53 1 3.92424e-06 15360
  55 109.5 0.000343743
SHAKE stats (type/ave/delta) on step 10000
  53 1 1.60142e-05 15360
   10000    304.05573   -62811.605    7531.7554    -44868.81   -278.64879    223384.03 
  55 109.5 0.00167094
   10000    302.61047    -62970.64    7632.7434   -44976.343   -456.56028    224571.87 
SHAKE stats (type/ave/delta) on step 10000
  53 1 1.16488e-05 15360
  55 109.5 0.00122663
   10000    301.60777   -62828.884    7569.0714   -44932.592    124.52222    224169.95 
SHAKE stats (type/ave/delta) on step 10000
  53 1 3.15613e-05 15360
  55 109.5 0.00337542
   10000     301.8708   -62922.323    7551.6491   -45034.447   -114.95587    224986.21 
SHAKE stats (type/ave/delta) on step 10000
  53 0.999993 1.72489e-05 15360
  55 109.5 0.0018177
   10000    302.82921    -62837.93    7565.4191   -44903.468    719.82906    223361.91 
   11000    304.74467   -63013.153    7567.7558   -45010.768   -188.93602       224367 
   11000    302.38753   -62908.032    7631.6838   -44922.429    37.910048    223169.95 
   11000     306.1457   -62787.984    7595.2892   -44710.093   -190.20175    224082.95 
   11000    304.59552   -62794.379    7592.3643   -44772.492   -398.65124    224781.51 
   11000    302.32758   -62854.037    7577.1351   -44925.035    232.91035     223420.8 
   12000    299.92414   -63014.363    7621.4634   -45123.327   -403.52723    224493.39 
   12000    302.11278   -62927.905     7509.344   -45074.049    310.68972    222856.03 
   12000    306.07368   -62842.784    7615.4188   -44747.229    58.312599    224284.18 
   12000     300.8092   -62756.069    7595.3324    -44860.86    190.50834    224473.69 
   12000    307.20355   -62709.438    7542.6412   -44647.974    158.46126    224227.28 
   13000     302.1304   -62927.419    7576.6198   -45005.684   -24.017442    224432.41 
   13000    305.24041   -62875.247    7657.9597   -44765.683    377.78187    224481.88 
   13000    304.09082     -62919.3    7528.6576   -44978.401     207.1557    223555.02 
   13000    303.27302     -62869.3    7568.7608     -44916.3   -61.964308     224586.7 
   13000    307.83896   -62760.482    7570.3264   -44649.575   -506.86937     224181.5 
   14000    306.95667   -62917.206    7543.2456   -44863.591    137.06643    223804.39 
   14000    307.38482   -62772.412    7444.4886   -44802.893    403.86885    224247.69 
   14000    305.60205   -62796.788    7571.1041   -44761.697    12.375234    225512.54 
   14000     308.1303   -62684.261    7522.9617   -44610.744   -231.02217     225052.1 
   14000    304.38796    -62903.14    7509.0506   -44971.674   -195.12571    223893.13 
   15000    305.57854   -62877.019    7526.9734   -44886.864    -147.2544    225161.22 
   15000    300.22342   -62945.893    7603.8257   -45062.248   -1151.1408    224768.91 
   15000     305.1602   -62673.252    7516.2348    -44708.16   -154.56472    225724.81 
   15000    302.86888    -62745.65    7579.9308   -44795.318    616.96035    224274.27 
   15000    307.67974   -62788.875    7613.7389   -44640.008   -219.59874    225065.14 
   16000    302.91146   -62979.814    7522.1505   -45085.804    55.379777    223664.93 
   16000    303.41948    -62914.72    7498.4623   -45027.003   -118.77944    224395.71 
   16000    303.92775   -62906.571    7446.8996   -45053.013    198.51054    224062.88 
   16000     302.2268    -62769.34     7482.657   -44938.267    535.10669    224357.48 
   16000    304.52965   -62841.868    7463.9719   -44950.629   -152.71259    223932.85 
   17000     305.2495   -62951.826    7585.8953   -44914.016   -77.197046    224104.08 
   17000    304.69254   -62915.495    7575.5714   -44907.079   -128.51502     224365.8 
   17000    303.09398   -62767.697    7612.0115   -44777.577   -31.625097    224668.17 
   17000    306.23509   -62802.286    7570.3147   -44746.309    30.559757    225049.66 
   17000    304.47793   -62841.286    7580.4917   -44835.298    81.428391       223855 
   18000    302.56925   -62869.508    7615.5049   -44893.861    3.8436751    224425.15 
   18000    305.66856   -62905.769    7475.3802   -44964.124    136.80225    223866.72 
   18000    304.31847   -62914.411    7470.0119   -45024.363  -0.67752811    224636.77 
   18000    304.15928   -62800.505    7559.5208   -44826.398   -162.65718    224123.96 
   18000    303.24288   -62935.441    7571.4876   -44980.746   -358.87277    224362.94 
   19000    298.14107   -62818.993    7542.5209   -45067.953    25.338523    225816.64 
   19000    304.22031   -62910.031    7611.1061    -44882.25   -17.397493    224291.22 
   19000    302.07428   -62855.987     7494.134   -45018.659   -145.75771    225259.34 
   19000    304.24527   -62780.224    7421.5025   -44941.192   -86.122557    224936.05 
   19000    304.00784   -62868.499    7655.4768   -44803.622   -34.749712    223894.12 
SHAKE stats (type/ave/delta) on step 20000
  53 0.999998 1.33575e-05 15360
  55 109.5 0.00138982
   20000    306.62497   -62635.357     7631.057   -44505.287   -212.12169    225046.91 
SHAKE stats (type/ave/delta) on step 20000
  53 1 8.55373e-06 15360
  55 109.5 0.00086738
   20000     299.9629   -62818.298    7464.9012   -45082.498   -164.20537     225192.6 
SHAKE stats (type/ave/delta) on step 20000
  53 0.999996 5.94991e-06 15360
  55 109.5 0.000616719
   20000    305.93491   -62824.897    7574.8568   -44774.656    182.56309     225404.3 
SHAKE stats (type/ave/delta) on step 20000
  53 0.999999 2.30834e-05 15360
  55 109.5 0.0024461
   20000    305.97638   -62731.047    7655.4644   -44598.779     227.4077    224560.27 
SHAKE stats (type/ave/delta) on step 20000
  53 1.00001 2.09474e-05 15360
  55 109.5 0.00220789
   20000    303.39608     -62991.9    7529.4536   -45073.994   -59.919836    223772.29 
   21000    302.82021   -63007.155    7641.5609   -44996.859   -221.71725     224354.3 
   21000    303.66425   -62927.608    7608.0876   -44921.885    224.45975    224118.58 
   21000    300.97834   -62907.572    7578.0985   -45023.806    -246.2419    225042.67 
   21000    306.26442   -63081.717    7578.1386   -45016.911    315.19932    224115.86 
   21000    305.35846   -62882.016    7629.8823   -44796.487   -300.87942    224480.79 
   22000    303.98683   -62770.437    7521.5559   -44840.201    380.67301    224519.98 
   22000    305.63949   -62934.318    7637.3537   -44831.696    289.97671    223350.22 
   22000    305.65163   -62860.069    7627.1212   -44767.263    368.22165     224298.6 
   22000    305.48175   -62839.346    7614.3141   -44765.164       161.88    224968.73 
   22000     303.3639   -62999.121    7580.2365   -45031.533    266.29285    224009.77 
   23000    302.36611   -63005.227    7645.6654   -45006.375    -323.3384    224363.48 
   23000    305.30735   -62922.048    7560.8443   -44907.307    144.07385    224226.53 
   23000     304.3523   -62885.991    7591.7928   -44873.004   -21.031905    224272.98 
   23000    302.57971   -62984.535      7525.75   -45098.285    -248.3164     224055.9 
   23000    303.96872   -62953.998    7355.3725   -45190.565   -114.58407    225389.09 
   24000    301.42769   -62760.813    7501.0576   -44938.701   -108.47343    224145.87 
   24000    303.16344    -62905.49    7619.1611   -44905.841    3.6830933    224259.13 
   24000    307.09309   -62799.346    7490.3688   -44793.937    371.76386    224385.06 
   24000    301.91896   -62924.436    7601.7518   -44984.809   -549.20734    224756.96 
   24000    302.66106   -62914.806    7464.1979   -45087.323   -192.30716    223743.11 
   25000     303.7741   -62857.566    7456.9116   -44999.257   -339.65211    224500.05 
   25000    300.76753   -62996.244    7503.0896   -45194.704     689.5061    223412.23 
   25000    302.72185    -62985.32    7544.0235   -45075.929    180.42172    224521.47 
   25000    304.55006   -62847.426    7560.5036   -44858.956   -233.07229    224561.89 
   25000     308.2787   -62772.836    7576.1657   -44641.033    458.61808    224189.17 
   26000    302.24365   -62777.847    7549.8234    -44879.03   -47.048293    224095.27 
   26000     305.1322   -62825.762    7491.7474   -44886.115   -7.8577951    223881.82 
   26000    306.90425    -62806.41    7536.4639   -44761.372    478.98381    224434.16 
   26000    304.97085   -62888.143    7503.8494   -44941.919    50.289678     223493.9 
   26000    302.85054   -63028.413    7634.5512   -45024.088    -319.4962    223647.05 
   27000    304.55142   -62861.881    7613.5852   -44820.283   -38.398091    224576.94 
   27000    302.09906   -63015.338    7537.5772   -45133.719    356.67512    223267.64 
   27000    301.39046   -62880.674    7525.4965   -45035.397    588.07413    224543.28 
   27000    304.61254   -62961.913    7552.9864   -44978.821   -148.07808    224063.29 
   27000    301.65678   -62858.665    7400.2016   -45129.565    378.67038    224615.62 
   28000    302.00885   -62913.886    7550.6635   -45022.269   -207.22877    224598.07 
   28000    306.85249   -62803.595    7502.6228    -44794.17    -287.0373    224687.22 
   28000    299.22549   -62964.814    7538.6967   -45180.467    259.94616    223785.13 
   28000    301.15442   -62957.251    7516.7411   -45128.812   -39.542984    224003.11 
   28000    302.57733   -62968.083    7507.1826   -45100.482    144.56443    224288.74 
   29000    305.50201   -62803.885    7633.9806   -44709.343     229.8277     223585.6 
   29000    302.87382   -62719.961    7514.4201    -44834.97   -179.44935    224976.57 
   29000    306.35372   -62863.253    7512.9186    -44860.61   -193.70149    224268.16 
   29000    303.09766   -62747.342    7419.8765    -44949.23    114.84582    223735.67 
   29000    306.11479   -62801.174    7625.7264   -44693.905    99.827093    224112.59 
SHAKE stats (type/ave/delta) on step 30000
  53 1 1.1064e-05 15360
  55 109.5 0.00115111
   30000    302.41884   -62915.914    7620.6348   -44940.287    95.329562    224222.85 
SHAKE stats (type/ave/delta) on step 30000
  53 0.999999 8.31437e-06 15360
  55 109.5 0.000851689
   30000    302.70289   -63012.771    7555.4902   -45092.563   -32.798653    224796.21 
SHAKE stats (type/ave/delta) on step 30000
  53 0.999995 1.27307e-05 15360
  55 109.5 0.00129061
   30000    302.42305   -62725.552    7419.8083   -44950.608   -427.12815    224773.07 
SHAKE stats (type/ave/delta) on step 30000
  53 1 1.30551e-05 15360
  55 109.5 0.00136408
   30000    307.66698   -62751.484    7619.0931     -44597.7    481.97158    224257.31 
SHAKE stats (type/ave/delta) on step 30000
  53 1 9.14749e-06 15360
  55 109.5 0.000907092
   30000       304.83    -62886.17    7509.4053   -44939.213    534.58453    224427.23 
   31000    304.58348   -63058.503    7639.7767   -44989.616   -807.84147    224914.06 
   31000    305.15822   -62889.237    7473.7217   -44966.725   -454.35954    224343.71 
   31000    305.07242   -62947.897    7619.6816   -44882.364   -112.75656    224709.71 
   31000    301.16984   -62857.227    7547.5576   -44997.444      376.718    224247.02 
   31000    301.95806   -62942.086    7613.2793   -44989.592    18.964226    223839.29 
   32000    308.56106   -62980.103    7565.1153   -44849.682   -183.22912    223986.42 
   32000    302.93821   -62911.424    7505.4729   -45033.176    49.655154    223828.39 
   32000      303.311   -62902.559    7444.3645   -45072.654   -164.89982    224358.89 
   32000    306.50953   -62845.332    7568.4183   -44781.855   -49.672619    224327.73 
   32000    305.68759   -62859.683    7577.3502   -44815.417    237.62358    224780.04 
   33000    305.26985   -62827.576    7639.9453   -44735.018   -292.29743       224890 
   33000    303.54767   -63040.043    7505.7362   -45140.663    395.45952    224353.93 
   33000    304.72446   -62691.265    7422.1174   -44835.209    212.73336    225225.43 
   33000    308.09517   -62784.295    7482.1766   -44752.766    200.81493     224890.8 
   33000    301.20485   -62867.016    7580.7813   -44972.811     102.9968    224661.82 
   34000    303.31386    -62871.76    7599.0611    -44887.06   -202.49523    223829.83 
   34000     308.1311   -62758.928     7536.428   -44671.917    841.82203    223738.72 
   34000    302.00219   -62966.232    7567.1954   -45058.311   -89.844396    223910.46 
   34000    305.64803   -62995.778    7530.5511   -44999.665    481.12697    223980.57 
   34000    303.98409   -62842.336    7530.0448   -44903.704    391.00175    225019.76 
   35000    307.62455   -62853.682    7505.7026   -44814.741   -355.96042    224175.77 
   35000    303.12842   -62947.094    7588.6414   -44979.164   -388.50895    224674.97 
   35000     303.8305   -62865.669    7598.7603    -44863.58    756.66832    223813.77 
   35000    304.90742    -62849.86    7610.8467    -44798.81   -190.22541    223978.76 
   35000    298.64722   -62760.944    7546.0142    -44989.08    87.507003       224419 
   36000    305.54369   -62851.373    7605.7263   -44783.658   -137.61356     224539.6 
   36000    300.45155   -62853.629    7510.6855   -45055.313    431.13599    224572.23 
   36000    305.47636   -62902.282    7594.9559   -44847.643    712.82423    223690.26 
   36000     302.2011   -62834.037    7494.4438   -44992.057    242.25437    224107.46 
   36000    303.66634   -62969.752    7538.1482   -45033.896    -101.2693    224048.66 
   37000    306.32239   -62955.023    7543.4635   -44922.908    218.65978     223856.2 
   37000    301.47799   -62840.849     7381.451   -45136.621    605.80534    223774.05 
   37000    304.38396   -62876.103    7615.9264   -44837.898    424.80597    223844.48 
   37000    302.73105   -62715.672    7651.7153   -44698.275   -42.277604    224433.49 
   37000    300.94528   -62980.229    7422.7026    -45252.99    161.21656    224221.75 
   38000    305.87965   -63043.886    7646.4468   -44923.947    60.943649    223234.21 
   38000    304.84147   -62870.478    7578.6316   -44853.903    26.875711    224127.49 
   38000    302.36632   -62781.449      7501.49   -44926.766    141.89706    223901.24 
   38000    306.99893    -62872.64    7469.0525   -44891.771     424.1952    225090.91 
   38000    308.48627   -62775.704    7493.5556   -44719.404   -103.32235    224635.28 
   39000    302.53586   -62919.544     7553.638   -45006.907    261.30665    224280.95 
   39000    303.95132   -63006.316    7450.0644   -45148.786    542.96114    224155.26 
   39000    306.47058   -62683.616    7564.2775   -44625.613    -38.46638     225070.3 
   39000    306.81925   -62948.509    7618.7917   -44824.053    212.96668    225169.25 
   39000    304.81419   -62889.296    7453.3457    -44998.94   -568.90221    224270.47 
SHAKE stats (type/ave/delta) on step 40000
  53 0.999999 1.45575e-05 15360
  55 109.5 0.00150475
   40000    300.46644   -62815.508    7556.2192   -44971.148    224.39815    223709.68 
SHAKE stats (type/ave/delta) on step 40000
  53 1 1.65472e-05 15360
  55 109.5 0.00174183
   40000    304.65748   -62873.704    7529.8998    -44912.16   -36.826146    224613.16 
SHAKE stats (type/ave/delta) on step 40000
  53 0.999992 1.62254e-05 15360
  55 109.5 0.00171319
   40000    303.54283   -62833.422    7447.5526   -44992.391    415.62722    225054.57 
SHAKE stats (type/ave/delta) on step 40000
  53 0.999995 7.46097e-06 15360
  55 109.5 0.00075802
   40000    306.99271   -62789.588    7585.2596   -44692.724   -251.46518    224033.48 
SHAKE stats (type/ave/delta) on step 40000
  53 1.00001 3.64533e-06 15360
  55 109.5 0.000375373
   40000    302.76867   -62898.635    7517.7255   -45013.939   -653.80064    225728.12 
   41000    302.00309   -62869.435    7504.2617   -45024.417    321.86083    223416.38 
   41000    304.04855   -62894.789    7544.6615   -44939.333   -424.62987    224186.39 
   41000     306.3937   -62802.063    7488.9486   -44822.021    202.39407    224541.47 
   41000    302.98391   -62723.638    7521.7814   -44827.516   -397.62665    224446.12 
   41000    302.49855   -62850.082    7525.3817   -44966.979    110.10374    224891.17 
   42000    305.08752   -62948.564    7447.3154    -45054.88   -440.65957    223912.72 
   42000    305.48094   -62920.606    7477.2223   -44983.544      123.676    224780.15 
   42000    304.64466   -62793.643    7484.0603   -44878.378    149.76905    225306.94 
   42000    302.37731   -62803.411    7540.4906    -44909.35   -124.27269    224155.23 
   42000    305.07932   -62870.714    7490.0901   -44934.536    20.934922    225031.29 
   43000    306.57656    -62834.82    7498.6246   -44838.841    77.752222    224286.07 
   43000    304.57611   -62851.019    7592.2524   -44829.909   0.84897714    224783.91 
   43000    304.80806   -62936.894    7541.9549   -44958.139   -26.331891     224537.8 
   43000    303.00172    -62685.79    7628.2545   -44682.586   -88.477536    224485.66 
   43000    306.56821   -62924.128    7586.1467   -44840.913    171.79563    224747.53 
   44000    305.67546   -62943.037    7615.0105   -44861.526   -641.53606    224040.15 
   44000    300.24277   -62712.951    7686.0944   -44746.375     98.80233    224253.42 
   44000     304.5762   -62769.781    7557.4101    -44783.51     18.95512    225218.19 
   44000    305.37046   -62809.637    7531.3695   -44822.211   -110.57404     225035.4 
   44000    304.20962   -63014.373    7516.4764   -45081.587    161.86661    224258.46 
   45000    304.13213    -62915.06    7586.9564   -44914.448    -348.6505    225375.77 
   45000    302.40228   -62941.049    7525.7194   -45060.904   -56.919532     224351.9 
   45000    301.28843   -62746.922     7539.898   -44890.738     291.0635    224494.25 
   45000    307.41343    -62773.42    7569.9749   -44677.435    48.402433    223657.21 
   45000    306.58944   -62951.508    7577.6259   -44876.086    310.98628    225446.63 
   46000    306.15626   -62824.031    7619.9911   -44721.077   -467.50078    225045.04 
   46000    305.21254   -62839.871    7592.3504   -44796.871   -246.02357    225199.95 
   46000    306.70751   -62818.597    7636.4354   -44680.323   -35.353759    223833.43 
   46000    305.75415   -62819.178    7521.1461   -44828.837    75.965677    224681.15 
   46000    302.33505   -62779.132    7533.8776   -44893.131   -164.76869    225521.89 
   47000    307.08975   -62876.661    7560.0381   -44801.696    53.031327    224678.87 
   47000    307.94223   -63002.533    7450.2982   -45008.119   -403.27151    224662.61 
   47000    304.31219   -62874.417    7510.4395   -44944.156   -329.53356    224350.68 
   47000     302.2557   -62867.682    7574.9222   -44943.354   -284.98143    225074.15 
   47000    301.91705   -62819.497    7546.4665    -44935.22   -173.42067    225060.96 
   48000    305.27208   -62953.884    7605.1023   -44896.094    391.92246    223880.67 
   48000    305.85406   -62820.675    7664.4223   -44683.637   -5.9527859    223937.91 
   48000    305.29882   -62788.915    7483.8965   -44851.414   -318.98709    224939.69 
   48000    304.80733   -62878.714    7420.5885    -45021.35    158.04427    224777.68 
   48000    306.06789   -62756.085    7592.1734   -44683.974   -310.23386    224283.46 
   49000    305.42856   -63033.448    7569.4153   -45005.986     281.7533    224058.44 
   49000    302.19199   -62949.004    7699.3227   -44902.457    346.16653    224416.25 
   49000    302.92029   -63006.648    7480.3092   -45154.177     80.54231    225543.57 
   49000    307.43283   -62718.396    7583.6931   -44608.029    113.37722     224521.7 
   49000    303.39794    -62809.66     7513.291   -44907.852    122.98861    225051.05 
SHAKE stats (type/ave/delta) on step 50000
  53 1 4.67239e-06 15360
  55 109.5 0.000447093
   50000     303.1741   -62927.285    7452.6597   -45093.772  -0.26868053    223778.26 
SHAKE stats (type/ave/delta) on step 50000
  53 0.999994 8.66491e-06 15360
  55 109.5 0.000889218
   50000    303.37705   -62876.603    7527.2311    -44961.57     763.6703     224127.1 
SHAKE stats (type/ave/delta) on step 50000
  53 0.999994 1.15168e-05 15360
  55 109.5 0.00120254
   50000    304.48206   -62895.818    7582.6429   -44887.538    248.09073    224031.29 
SHAKE stats (type/ave/delta) on step 50000
  53 1.00001 1.44724e-05 15360
  55 109.5 0.00152566
   50000     305.4428   -62735.091    7560.4236   -44716.133    374.94656    224177.47 
SHAKE stats (type/ave/delta) on step 50000
  53 1 1.13555e-05 15360
  55 109.5 0.0011503
   50000     304.8473   -62803.914    7521.0267   -44844.743    258.24114    224448.21 
   51000     301.5548    -62963.15    7597.8024   -45039.941   -272.73816    223391.95 
   51000    301.47652   -62769.016    7521.8206   -44924.469    612.18145    223084.52 
   51000    304.45188   -62826.342    7460.2594   -44941.479   -20.188572    224917.82 
   51000     305.1216   -62870.465    7578.6999   -44844.229    310.04183    224070.77 
   51000    309.14963   -62910.631    7441.0725   -44884.101    375.20179    224124.34 
   52000    301.06849   -62995.301    7546.0638   -45140.482    604.31833    223289.68 
   52000     306.9587   -62963.687    7639.5604   -44813.688   -143.89437    224744.68 
   52000    301.97201   -62868.931    7595.3741   -44933.865    60.582701    223943.24 
   52000    304.25751   -62764.768    7523.5088    -44823.31   -170.40055    223792.72 
   52000    299.89367    -62935.55     7517.169   -45149.852   -537.43565    224358.33 
   53000    306.52876   -63000.948    7665.5534   -44839.677   -97.975496    223888.16 
   53000    303.86109   -62898.764    7593.0931   -44901.295   -212.68443    224465.56 
   53000    304.22047   -62821.254    7506.5388   -44898.035   -67.071583    223950.79 
   53000    305.91893   -62959.792    7668.3414   -44816.613    22.808517    225235.46 
   53000    305.35639    -62835.89    7597.3872   -44782.928   -172.16518    225430.12 
   54000    303.02615   -63017.806    7575.2496    -45066.77   -36.426121    223359.42 
   54000    299.70454   -62894.125    7607.6997   -45024.373   -84.267098    223907.99 
   54000    305.81368   -62890.972     7554.552   -44865.186    -68.92703    224085.74 
   54000    306.03243   -62934.986    7646.6783   -44809.585    88.920544    224653.31 
   54000    305.46955   -63003.785    7590.3858   -44953.949   -90.763914    224546.67 
   55000    304.72109   -62870.581    7543.9425   -44892.817   -375.57846    224498.17 
   55000    305.49496   -62777.796    7566.4583   -44751.018   -256.11048    224795.79 
   55000     302.2828   -63026.506    7595.7048   -45080.467    174.60058    224813.98 
   55000    302.92495   -62786.841    7535.3657   -44879.154     82.92165    224715.89 
   55000    302.98812   -62862.749     7619.697   -44868.568    -144.1531    225139.87 
   56000    304.69787   -62906.755    7637.8111   -44835.917   -269.16895    224577.01 
   56000    301.60889   -62854.538    7560.4958   -44966.783   -357.33158    224633.55 
   56000    307.79862   -62897.399    7476.3231   -44881.877    354.47713     224228.6 
   56000    302.02146   -62828.993    7581.6761   -44905.932    221.21789    224814.85 
   56000    307.15549   -62939.837    7446.5493    -44976.11   -31.471192    224072.67 
   57000    306.77279   -62760.313     7536.554   -44719.686   -228.84905    225108.14 
   57000    302.66517   -62873.764    7501.2663   -45009.071    29.117505    223585.38 
   57000     303.0279   -62970.858    7427.2144   -45167.797    585.22953    224056.72 
   57000    306.42436   -62786.261    7619.4721   -44674.645   -4.6130399    224036.08 
   57000      304.127   -62819.799    7526.2197   -44880.099    160.56531    224019.01 
   58000    308.10656   -63009.457    7609.4621   -44850.253    56.992749    223610.49 
   58000     305.9998   -62922.055    7498.7909   -44945.658   -228.58225     224122.3 
   58000    303.67054   -63149.915    7606.4253   -45145.638    433.92703    225016.64 
   58000    305.19798   -62826.851    7563.4592    -44813.24  -0.30062893     225343.2 
   58000    302.81024    -63019.76    7624.7984   -45026.568   -531.11397    225238.57 
   59000    302.75082   -62995.003    7658.7261   -44969.918    8.8905498     223602.2 
   59000    307.19189   -62866.641    7551.2328   -44796.985   -555.02476    225605.45 
   59000    304.03541   -62782.155    7464.9124   -44906.898    310.99848     224373.1 
   59000    300.41229   -62816.127    7556.0544   -44973.786   -237.22226    224777.86 
   59000    305.32247   -62874.317    7541.2325   -44878.671   -433.11525    224217.29 
SHAKE stats (type/ave/delta) on step 60000
  53 1.00001 2.37808e-05 15360
  55 109.5 0.00251617
   60000    305.65092   -62820.492    7511.3738   -44843.458   -359.69246    224323.21 
SHAKE stats (type/ave/delta) on step 60000
  53 1 1.24151e-05 15360
  55 109.5 0.00130895
   60000    306.40443   -62859.442    7585.6286   -44782.353   -159.27958     224139.8 
SHAKE stats (type/ave/delta) on step 60000
  53 1.00001 9.65059e-06 15360
  55 109.5 0.000995338
   60000    305.19215   -62812.538    7572.1448   -44790.441   -34.992396    225162.12 
SHAKE stats (type/ave/delta) on step 60000
  53 0.999994 1.98376e-05 15360
  55 109.5 0.00210932
   60000    303.83609   -62679.392    7486.9496   -44788.923   -89.618498     224735.8 
SHAKE stats (type/ave/delta) on step 60000
  53 0.999998 5.79964e-06 15360
  55 109.5 0.000590211
   60000    300.24584   -62863.791    7534.2049   -45048.999   -484.53501    224310.88 
   61000    305.07671   -63103.101     7593.063   -45064.039   -330.99457    223608.41 
   61000    306.59467   -62915.235      7574.05    -44843.21    129.22271    223715.39 
   61000    305.41153   -62954.277    7578.0066   -44918.807   -194.02905    224066.97 
   61000    308.12108   -62737.824    7545.1284   -44642.456    -205.2433    224350.92 
   61000    304.37441   -62745.019     7631.543   -44691.524     -279.667    224242.01 
   62000    301.32893   -62862.375    7528.1458   -45016.556   -117.20077     224650.3 
   62000    303.88187   -62830.117    7607.0224   -44818.007    106.31062    225011.23 
   62000    303.33582   -62835.725    7451.9972   -44997.338    1.4686689     224007.7 
   62000    301.45379   -62957.443    7655.4876   -44980.007   -492.30886    225076.66 
   62000    301.22021   -62853.429     7534.811   -45004.667   -13.257122    224625.22 
   63000    306.52001   -62901.079      7494.89   -44910.771   -415.44735    224520.57 
   63000    305.70875   -62920.894    7567.3603   -44885.894    175.49727    223321.86 
   63000    303.52914   -62804.488    7656.5044   -44754.975    535.22495    224748.76 
   63000    303.96776    -62935.35    7437.4962   -45089.826    179.30362    224845.66 
   63000    304.27826   -62733.034    7547.6274   -44766.747    224.68912    225112.19 
   64000    301.38194   -62863.249      7585.18   -44958.581   -124.73509     224495.4 
   64000     301.5893   -62765.972    7488.4595   -44950.924    97.323387    224206.45 
   64000    302.12808   -62836.286    7459.5956   -45031.654    283.65323    224965.52 
   64000     307.5588   -62649.232    7525.3886   -44592.856    160.70992     224706.3 
   64000    299.54004    -62798.82    7500.2678   -45042.132    61.972801    224086.67 
   65000     302.9329   -62919.509    7498.7163   -45048.199    62.890634    223790.39 
   65000    301.63136   -62841.192    7558.2573   -44954.906   -82.342592    223984.37 
   65000    304.64972   -62866.186     7565.027    -44869.78    367.15276    223938.56 
   65000     304.4583   -63099.329    7537.6733   -45136.831   -283.76467    224562.03 
   65000    305.27471   -62998.798    7492.3302   -45053.689    278.65407     223081.8 
   66000    306.08723   -62850.688    7583.7789   -44786.309   -79.632636    225390.74 
   66000    300.49109   -62897.374    7487.5562   -45120.833    229.53587    224814.02 
   66000    302.62685   -62824.099    7518.1021   -44943.883   -315.61211    225214.53 
   66000    303.30464   -62863.708    7592.3341   -44886.052    379.95898    224571.18 
   66000    305.90445   -62892.027     7548.141   -44869.545   -242.40767    224549.94 
   67000    306.87947   -62791.394    7517.5672     -44766.1    250.13227    224572.56 
   67000    305.02353   -62739.999    7565.5257   -44730.296    64.812813    224225.85 
   67000    305.26969   -62779.384     7431.195   -44895.583   -8.4025875    223868.42 
   67000    301.23412   -62911.227    7582.7931   -45014.007   -108.40178    224181.37 
   67000    303.48101   -62912.144    7427.2082   -45093.574   -175.43648    223909.23 
   68000    304.19376   -62952.109    7529.7769   -45006.566   -401.64959    224535.72 
   68000    302.60484   -62999.612    7500.1847   -45138.067    69.849125    223681.98 
   68000    304.14869   -63039.745    7477.4472   -45148.075   -236.73486    224096.11 
   68000    304.19302   -62887.393    7564.6388   -44907.014    311.96985    224783.64 
   68000    306.62515    -62901.89    7585.5178   -44817.354   -233.82732    224946.51 
   69000    303.19733   -63084.222    7606.8886   -45095.685   -175.00611    224468.24 
   69000    303.27477   -62785.245    7500.3462     -44900.6    126.90546    224194.36 
   69000    303.98367   -63070.985    7598.4291   -45063.983   -342.65068     223610.8 
   69000    304.41119   -62770.068      7478.29   -44868.567    376.70905    223871.74 
   69000    304.10392    -62931.89    7509.0563   -45010.144   -78.989208     223932.6 
SHAKE stats (type/ave/delta) on step 70000
  53 1 7.19577e-06 15360
  55 109.5 0.000744474
   70000    300.80343   -62913.797    7621.8289   -44992.288   -295.88846    225246.57 
SHAKE stats (type/ave/delta) on step 70000
  53 1 5.42434e-06 15360
  55 109.5 0.000545308
   70000     304.0097   -62883.485    7490.7899   -44983.231    56.126563    223859.33 
SHAKE stats (type/ave/delta) on step 70000
  53 0.999993 1.43633e-05 15360
  55 109.5 0.00149921
   70000    303.88753   -62976.301    7448.6563   -45122.364    139.50052    224023.29 
SHAKE stats (type/ave/delta) on step 70000
  53 0.999999 2.06046e-05 15360
  55 109.5 0.00214972
   70000    302.81073   -62761.895    7493.7502   -44899.734    511.18205    224003.24 
SHAKE stats (type/ave/delta) on step 70000
  53 1 1.67103e-05 15360
  55 109.5 0.00173502
   70000    303.03879   -62949.689    7535.7344   -45037.735    42.180925    224283.73 
   71000     304.8819   -62887.362    7579.6628   -44868.371   -9.1549922    224740.68 
   71000     302.1164   -62833.742     7503.858   -44985.247   -71.846924    224552.08 
   71000    307.24085   -62873.799    7533.5085    -44820.19   -208.32131    224302.04 
   71000    299.97706   -62900.292    7529.3456   -45099.562    880.89274    223470.85 
   71000    306.11005   -62851.924    7450.3034    -44920.24   -258.01118    224779.93 
   72000    303.55059   -62965.809    7534.8094   -45037.256    157.99524    224207.37 
   72000     301.2994   -62853.945    7501.6652   -45035.618    294.77735    223456.96 
   72000    303.13121   -62888.814    7596.0742   -44913.356    312.12381    223934.95 
   72000    301.65068   -63042.396    7513.4389   -45200.267    372.68422     224418.7 
   72000    306.22052   -62886.478    7574.5072   -44826.807    779.10066    224478.73 
   73000    306.91143   -62839.381     7519.315   -44811.246   -123.40552    225123.99 
   73000    302.00678   -62880.281    7524.8675   -45014.531   -134.68213    224556.23 
   73000    303.84389   -63015.222    7623.0671   -44988.369    8.5237045    223876.26 
   73000    306.65125   -62867.479    7606.4289   -44761.139     322.3595    223691.02 
   73000    307.96657   -62851.269    7613.6286   -44692.691    349.84381    224218.95 
   74000    300.80837   -62869.633    7585.0997   -44984.685    202.89469    225451.65 
   74000    307.65845   -62966.464    7441.8238   -44990.241    493.77197    224871.28 
   74000    301.20599   -62863.123    7460.7365   -45088.923    484.54712    223180.69 
   74000     305.7732   -62849.801    7558.2388   -44821.715    469.52009    223926.49 
   74000    301.24222   -62941.345     7592.406   -45034.235    304.94466     224686.7 
   75000    305.71566   -62819.751    7563.3281   -44788.546    150.99506    224643.22 
   75000    304.72418   -62816.677    7461.0574   -44921.691    29.887344    224105.46 
   75000    306.21941   -62895.125    7497.3614   -44912.638    189.41391    223026.95 
   75000    303.35304   -62764.852    7626.6965   -44751.176   -98.509511    224969.69 
   75000    309.93944   -62847.512    7495.9037   -44739.107    197.31155    224828.68 
   76000    304.23509   -62819.071    7583.7153   -44818.174    363.36199    223535.94 
   76000     301.6045   -62749.576    7500.7685   -44921.699    70.477239    225004.68 
   76000    304.59497   -62875.773    7458.9816   -44987.287   -139.10448    223611.02 
   76000    307.02269   -62950.579    7468.2097   -44969.739   -213.37556    225039.83 
   76000    297.34401   -62892.956    7573.5025   -45138.226   -228.14783    224684.06 
   77000    301.31127   -62949.322    7461.7545     -45170.5    39.079415    223416.27 
   77000    304.84541   -62764.862    7484.0964   -44842.687    103.78275    225071.32 
   77000    308.11326   -63012.996    7401.2292   -45061.795    14.814895     224235.2 
   77000    305.87464   -63037.369    7705.1477   -44858.901   -410.35503    224499.96 
   77000    305.76749   -62790.456    7590.0486   -44730.756    324.15574    224779.07 
   78000    307.92201   -62809.503    7654.7135   -44611.366    290.86311    224669.63 
   78000    297.70641   -62628.279    7555.9582   -44878.685    16.772435    224377.46 
   78000    299.94249    -63120.16    7671.2202    -45178.74   -607.34955    224206.42 
   78000    300.26034   -62717.172    7682.2893   -44753.798   -366.49538    224770.16 
   78000    304.37745   -62700.723    7528.6296   -44750.037    94.134197    224822.04 
   79000    302.75787   -62770.172    7401.7316    -45001.84   -50.118997    224627.05 
   79000    305.89587   -63039.869    7595.4579   -44970.364     326.4265    224255.69 
   79000    300.79598   -62926.315    7640.7581   -44986.132    249.07841    223717.49 
   79000    303.06173   -62867.767     7529.632    -44961.13   -428.27176    225338.88 
   79000    307.94824    -62888.05    7569.9248   -44773.803   -20.380014     224582.9 
SHAKE stats (type/ave/delta) on step 80000
  53 1 1.36737e-05 15360
  55 109.5 0.00144693
   80000     303.0563   -62963.606    7671.7607   -44915.027   -9.2454704    223774.04 
SHAKE stats (type/ave/delta) on step 80000
  53 1.00001 2.21508e-05 15360
  55 109.5 0.00235942
SHAKE stats (type/ave/delta) on step 80000
  53 1 3.53031e-06 15360
   80000     303.0166   -62734.399     7478.582   -44880.358    320.74494    224827.44 
  55 109.5 0.000360934
   80000    302.59286   -62993.588    7553.9666   -45078.671    40.876979    223855.71 
SHAKE stats (type/ave/delta) on step 80000
  53 0.999994 1.3072e-05 15360
  55 109.5 0.00136281
   80000    305.23618   -62999.028     7638.568   -44909.001   -183.29815    224531.95 
SHAKE stats (type/ave/delta) on step 80000
  53 1 2.82612e-05 15360
  55 109.5 0.00300129
   80000    302.11322    -62784.07    7516.0022   -44923.541   -205.08991    225117.07 
   81000    301.58983   -62999.869    7525.7395   -45147.523   -213.56155     224166.7 
   81000    306.83549   -62806.531    7494.7728   -44805.538    294.94301    224326.54 
   81000    302.71886   -62820.639    7496.3341    -44959.04    118.45494    224695.72 
   81000    305.70527   -62987.402    7612.3765   -44907.504   -263.49342    224218.47 
   81000    307.09096    -62956.94    7633.5074   -44808.464   -199.47503    225282.22 
   82000    306.71437   -62732.006    7483.0243   -44746.908     293.7996    224413.35 
   82000    304.65478   -62785.646    7509.1205   -44844.973    148.83418    225000.09 
   82000    305.23445   -62869.272    7552.0384   -44865.834    109.85388     224687.6 
   82000    300.87175   -62906.082    7675.5939    -44928.47   -522.46168    224453.73 
   82000    304.43844   -62906.428    7475.6327   -45006.651    492.90176    224284.89 
   83000    302.26544    -62837.89    7451.4617   -45036.689    401.74115    224163.36 
   83000    301.46396   -62919.036    7601.9385   -44994.801   -200.97432    224045.05 
   83000    303.66931   -62775.832    7646.6474   -44731.376   -254.44558    224635.99 
   83000    307.48144   -62924.808    7510.1549   -44886.315   -128.58568    223323.17 
   83000    306.84002   -62676.732    7517.9812   -44652.375   -88.244511    224631.01 
   84000     302.1688   -62860.955    7456.1244     -45058.4   -122.82093    224764.55 
   84000    303.60685     -62770.5    7472.3558   -44902.474   -87.945152    225363.36 
   84000    299.35526   -62768.667    7579.8281   -44938.746   -207.65752    224764.77 
   84000    303.24577   -62902.582    7670.6205   -44848.655   -212.93014    224214.03 
   84000    306.29608    -62832.28    7627.3021   -44717.227    167.64709    224675.92 
   85000     307.2731   -62811.363    7451.6465   -44838.512    259.18607    224506.59 
   85000    301.63727   -62956.015     7645.266   -44982.519   -8.3045169    224512.51 
   85000    299.11465   -62805.785    7494.2899    -45069.64    820.06674    224523.56 
   85000     303.8366   -62953.496    7621.5184    -44928.44   -196.73998    224849.57 
   85000    302.32742   -62823.511    7528.0389    -44943.61   0.69046132    224876.43 
   86000    309.91237   -62833.927    7529.9707   -44692.382    132.12963    224818.91 
   86000    305.70002   -62815.529    7579.2914   -44768.896   -63.677151    224713.33 
   86000    306.32822   -62864.004    7552.6888   -44822.464   -14.810822     224791.5 
   86000    304.06061   -62973.577    7537.8862   -45024.484    26.873331    224799.89 
   86000    308.02837    -62784.65    7690.3536   -44547.231   -25.410801    224593.64 
   87000    298.08834   -62893.591    7425.8127   -45261.065    85.482239    224134.98 
   87000    304.63306   -62997.947    7633.0998   -44934.039   -139.38834    225089.35 
   87000    307.72074   -63021.118    7525.9404   -44958.645    282.26202    224356.62 
   87000    304.66927   -62895.725     7501.774   -44961.903    333.21246    223619.82 
   87000    304.04135   -62754.266    7579.1431   -44764.575    426.91738    224620.65 
   88000    304.88775   -62871.871    7530.8275   -44901.515   -160.03099    224333.95 
   88000    303.70372   -62867.582     7665.162   -44803.433    626.74715    224793.37 
   88000    303.71064   -62964.301     7520.552   -45044.525   -266.07633    225067.57 
   88000    306.58455   -62895.217    7521.9666   -44875.622    323.33025    224540.74 
   88000    303.79644   -62773.794    7478.3471   -44893.285    574.47003     224146.8 
   89000    304.19735   -62891.226    7500.7606   -44974.576   -262.35679    224668.99 
   89000     307.5644   -62848.981    7484.2312   -44833.571   -363.98262    224272.77 
   89000    298.31202    -62822.94    7623.7884   -44984.779    73.912351    224885.45 
   89000    304.07204   -63033.516    7567.8533   -45054.064    292.72384    224560.56 
   89000    308.21566   -62824.278    7614.3874   -44656.412    347.29884    224554.73 
SHAKE stats (type/ave/delta) on step 90000
  53 0.999995 5.29741e-06 15360
  55 109.5 0.00051835
   90000    302.42359   -63026.878    7680.5286   -44991.195   -298.17468     224320.1 
SHAKE stats (type/ave/delta) on step 90000
  53 0.999999 1.39599e-05 15360
  55 109.5 0.00147007
   90000    303.30673   -62936.916    7536.4579   -45015.064    429.59973    224572.25 
SHAKE stats (type/ave/delta) on step 90000
  53 0.999999 1.25992e-05 15360
  55 109.5 0.0013042
   90000    303.24904   -62830.482    7539.0749   -44907.989    155.82632    224547.14 
SHAKE stats (type/ave/delta) on step 90000
  53 0.999992 1.44203e-05 15360
  55 109.5 0.00146689
   90000    306.49868   -62904.137    7658.9081   -44750.541   -286.35772    224348.16 
SHAKE stats (type/ave/delta) on step 90000
  53 0.999999 6.85747e-06 15360
  55 109.5 0.000685085
   90000    309.88097   -62912.127    7581.6884   -44719.939   -217.43546    224926.18 
   91000    305.87717   -63059.386    7527.9631   -45058.015   -126.24667    224290.57 
   91000    302.04624   -62670.848    7457.4321   -44871.182   -452.01786    224338.94 
   91000    303.46871   -62914.666    7596.0232   -44927.703    -487.6827    224117.26 
   91000    309.13249   -62831.981    7565.7515   -44681.358    123.31332    223762.25 
   91000     300.6782   -62819.819    7587.5346   -44936.893    -300.7763    224579.28 
   92000    302.31641   -63003.986    7500.7544   -45151.747   -269.04095    224335.07 
   92000    303.76649   -62772.553    7560.1961    -44811.22   -200.79387    224111.01 
   92000    303.40003   -62855.533    7565.0694   -44901.875    296.50189    223998.44 
   92000    300.82013   -62792.718    7500.1695   -44992.297     26.45329    225217.86 
   92000    305.09536   -63032.476    7636.8067   -44949.032   -62.161358    223888.42 
   93000     303.6293   -62915.189    7537.5457   -44981.205   -435.59155    224584.45 
   93000    305.87852    -62960.77    7451.3674    -45035.95    37.150083    223844.09 
   93000    298.56182   -62837.609    7465.9651   -45148.719    218.34142    223584.64 
   93000    304.12385   -62627.472    7529.4596    -44684.64    250.69712    225258.97 
   93000    306.49794   -62819.921    7552.3457   -44772.912    16.407856    224843.68 
   94000    306.31542   -62764.972     7519.108   -44757.451   -335.33779    224908.59 
   94000    305.41885   -62746.659    7651.8467   -44637.098   -435.35604    224761.32 
   94000    303.67376   -63010.402     7756.784   -44855.657   -28.338838    224181.36 
   94000    299.54492   -62771.195    7420.6686   -45093.939    544.03362    224543.06 
   94000     306.9677   -62691.697    7485.3347   -44695.615   -9.6414488    224906.03 
   95000    306.73403   -62792.854    7575.7991   -44714.308   -250.60839    224396.27 
   95000    302.59389   -62923.721    7522.4683   -45040.267   -121.85545    224407.23 
   95000    306.97794   -62920.054    7639.9392   -44769.017    -111.8308    224010.28 
   95000    302.80785   -62778.927    7553.7276   -44856.888    182.49627    224752.57 
   95000    306.49175   -62908.249     7592.324   -44821.475   -372.07872    225080.38 
   96000    299.20975   -62800.697    7517.5876   -45037.998    423.71708    224522.62 
   96000     303.3213     -62835.5    7597.2837   -44852.323   -237.70852    224907.43 
   96000     304.5164   -62953.135    7639.6128   -44886.708   -245.77257    224298.61 
   96000    303.17063   -62815.531    7501.8825   -44932.915   -427.25216    225200.41 
   96000    306.95241   -62808.744    7533.7913   -44764.729   -109.24708     224189.8 
   97000    303.87873   -62947.495    7469.2829   -45073.232    752.37491    224107.42 
   97000    301.83416   -62983.412    7527.4199    -45121.02    210.86064    225288.12 
   97000    305.08959   -62908.201    7490.4745   -44971.286    28.133792    223326.63 
   97000      300.964   -62960.999    7540.1689   -45115.653    49.155905     225223.8 
   97000    304.71889   -62735.395    7559.1794   -44742.469   -240.18138    224477.17 
   98000    305.76784   -62848.376    7414.5659   -44964.146     376.4542    223390.95 
   98000    304.73979   -62861.473    7556.3447   -44870.666    5.4188359    224150.88 
   98000    307.74746   -63043.051    7542.5605   -44963.043   -325.74837    224309.24 
   98000    302.77939   -62826.003    7626.6025   -44832.063    344.97207    224191.76 
   98000    302.53432   -62914.769    7533.7516   -45022.071   -294.39542     223972.7 
   99000     305.5444   -62966.042    7369.7638   -45134.265   -366.39017    225338.94 
   99000    301.67011   -62813.208     7534.474   -44949.379    180.05827    224553.23 
   99000    304.13941   -62924.128     7710.451   -44799.772   -270.97136    223837.03 
   99000    303.73688   -63000.275     7454.016   -45146.136    284.37617    223749.96 
   99000    307.73012   -62794.248    7566.6037   -44690.791   -374.59915    224431.18 
SHAKE stats (type/ave/delta) on step 100000
  53 0.999998 9.58434e-06 15360
  55 109.5 0.00101855
  100000    309.57659   -62886.727    7404.1696   -44882.479    372.93269    223177.77 
SHAKE stats (type/ave/delta) on step 100000
  53 0.999996 9.53513e-06 15360
  55 109.5 0.000978897
  100000    307.02379   -62946.721    7425.2859   -45008.767   -407.55839    224688.29 
SHAKE stats (type/ave/delta) on step 100000
  53 1 5.2605e-06 15360
  55 109.5 0.000546913
  100000    305.10859   -63084.636    7520.8034   -45116.742    2.0278892    223947.37 
SHAKE stats (type/ave/delta) on step 100000
  53 0.999998 1.48922e-05 15360
  55 109.5 0.00154562
  100000    305.94172   -62870.513    7564.5558    -44830.34    363.15056    224213.61 
SHAKE stats (type/ave/delta) on step 100000
  53 0.999998 1.87027e-05 15360
  55 109.5 0.00196083
  100000     301.5829    -62720.88    7593.9987   -44800.512    -54.50138    224198.89 
  101000    303.25038   -62842.711    7529.4454   -44929.801    126.11479    224252.44 
  101000    305.97291   -62816.409    7462.7191   -44877.005    139.81074    224917.94 
  101000    301.76538   -63045.551    7550.8953   -45162.039   -596.29159    224223.44 
  101000    306.44468   -62760.169     7370.003   -44897.327    586.33347    225336.64 
  101000    306.28773   -62716.589     7603.218   -44625.906   -892.10957     224930.8 
  102000    307.52212   -62668.329    7487.6615   -44650.937    469.22107    224875.27 
  102000    301.94323   -62783.308    7525.7573   -44918.844   -159.01175    224223.05 
  102000    307.84582   -62829.287    7555.3534   -44733.119    -593.7144    224627.84 
  102000    302.86536   -62935.194    7566.6909   -44998.222    337.53364    225000.78 
  102000    304.66381   -62697.168    7488.8591   -44776.448   -502.60137    224852.58 
  103000    304.90376   -62792.293    7501.3121   -44850.903    24.952084    224252.18 
  103000    298.38811    -62806.39    7566.2179   -45023.195    347.34074    224928.23 
  103000    304.63849   -62981.554    7526.1258   -45024.434   -150.14898    224576.26 
  103000    301.29374   -62946.195    7604.5327   -45025.194    67.191507    224034.67 
  103000    307.50567   -62863.927    7621.4865   -44713.272    179.89463    224198.09 
  104000    305.76709   -62801.419    7505.7769   -44826.004   -516.87541    224221.31 
  104000    299.88731   -63093.625    7755.6286   -45069.686    341.47353    224126.93 
  104000    300.97597   -63060.238    7614.7487   -45139.901   -93.327882    224039.96 
  104000    304.53785    -62796.84    7582.3572   -44786.935    52.214434    224589.88 
  104000    304.27314   -62934.957    7485.1336   -45031.339   -475.14465    225040.46 
  105000     303.2964   -62797.613    7546.6752   -44865.897   -115.32117    224940.58 
  105000    307.46231    -62838.07    7563.5861   -44746.801    569.19702    223699.79 
  105000    305.00443   -62872.703    7397.0688    -45032.11     364.8677    224439.87 
  105000    306.69271   -62885.824    7599.0341   -44785.458   -540.16433    224000.46 
  105000    304.07214   -62798.224    7619.8629   -44766.759   -391.05147    225154.13 
  106000    304.97463   -63014.573    7621.6562   -44950.413    279.50543    224386.88 
  106000    302.48652   -62916.872    7480.5433   -45079.019    119.39355    223249.99 
  106000      308.594   -62923.709     7548.787   -44808.488    317.94278    223924.27 
  106000    303.53672   -62949.086    7552.7294   -45003.088    333.44696    223359.01 
  106000     302.8266   -62805.317    7519.9795   -44916.383   -304.13873    224873.47 
  107000    304.88782   -62793.842    7557.0175   -44797.293     560.9056     224768.7 
  107000    304.29159   -62771.754    7541.2951   -44811.342    158.40706    224678.29 
  107000    300.96278   -62895.855    7577.5032   -45013.217    220.91503    223970.07 
  107000    301.22117   -62996.075    7623.8314   -45058.261    124.68542    223681.71 
  107000    305.44838   -62851.282     7483.492   -44909.065   -184.35677    224279.52 
  108000     303.0513   -62900.259    7418.7047   -45104.907     225.7482    223846.66 
  108000    304.77163   -62931.948    7618.4833   -44877.912   -523.33444    224946.34 
  108000    303.34652   -62957.531    7523.8231   -45046.952    65.090755    223771.63 
  108000    304.54017   -62784.733    7598.6765   -44758.429   -381.85871    225469.81 
  108000    303.09506   -63038.438    7542.6281   -45117.664   -151.28109    223499.01 
  109000    304.59106   -62904.749    7485.3407   -44990.038    189.59043    224011.66 
  109000    303.51808   -62860.436    7432.4561   -45035.349   -72.778661    224377.21 
  109000    304.47095   -63039.972    7604.7088   -45010.005   -579.00706    223757.94 
  109000    303.96814   -62839.391    7493.6267   -44937.723    114.51327    224978.66 
  109000    301.79798   -62941.036    7464.0905   -45143.212    414.22154    223929.37 
SHAKE stats (type/ave/delta) on step 110000
  53 0.999999 7.8317e-06 15360
  55 109.5 0.000804874
  110000    306.49793   -62787.206    7506.2724   -44786.272   -135.98662     224606.1 
SHAKE stats (type/ave/delta) on step 110000
  53 1 1.35527e-05 15360
  55 109.5 0.00140411
  110000    304.30713   -62875.214    7477.6123   -44977.953    164.65769    224647.09 
SHAKE stats (type/ave/delta) on step 110000
  53 0.999992 5.78482e-06 15360
  55 109.5 0.000605759
  110000    303.63734   -62866.144    7398.4361   -45070.994   -187.39816    224462.81 
SHAKE stats (type/ave/delta) on step 110000
  53 1 1.49565e-05 15360
  55 109.5 0.00151624
  110000    306.84441   -62938.285    7592.3777   -44839.381    32.480082    224153.67 
SHAKE stats (type/ave/delta) on step 110000
  53 0.999997 1.47013e-05 15360
  55 109.5 0.00148998
  110000    304.26697   -62871.089    7666.3092   -44786.507   -119.13991    224230.43 
  111000    305.20178   -62956.629      7544.04   -44962.307   -201.81683    223719.35 
  111000     302.9058   -62765.778    7573.5716   -44820.541   -169.61535    224180.15 
  111000    302.11308   -62902.273    7593.0003   -44964.751    -125.1498    225026.84 
  111000    299.69744   -62647.043    7423.6356   -44961.598    -139.4591    224050.36 
  111000    302.17231   -62954.244    7531.8856   -45075.808     129.0054    224309.66 
  112000     303.2348   -62887.292    7524.3996   -44979.962   -319.79366     224270.9 
  112000    306.59286   -63005.717    7544.4691   -44963.335    424.41589    223998.42 
  112000    305.14745   -62891.917    7596.7659    -44846.73    633.52221     224183.9 
  112000    303.52671   -62835.501    7498.3254    -44944.25   -116.26458    224504.89 
  112000    299.40028   -63041.486    7582.1246   -45207.727   -111.83679    223608.93 
  113000    303.96471    -62768.11    7524.1577    -44836.03   -140.80196     225031.8 
  113000    301.60139   -62870.323    7415.7732   -45127.548    505.56936     224315.1 
  113000    304.73188   -62861.568     7531.367   -44896.009    -285.1931    224200.65 
  113000    307.30859   -62847.523    7579.5871   -44745.516    -22.65283    224867.64 
  113000     305.4813   -63079.337     7552.899   -45066.585    -31.95837    223969.57 
  114000    302.76884    -62688.17    7526.8747   -44794.319   -449.77319    225070.93 
  114000    306.85777   -62823.297    7498.9492   -44817.364    217.63718    224111.13 
  114000    303.00207   -62648.295    7412.8202   -44860.513    -16.10644     225594.8 
  114000    307.32307   -62848.992    7530.9747   -44795.102    392.47699    224569.07 
  114000    302.26736   -62917.546    7556.7262   -45011.015    156.84583    223588.74 
  115000    307.56366   -62877.633    7556.7621   -44789.717   -722.85938    223800.96 
  115000    303.35283   -62866.689    7622.2069   -44857.509    120.67193    223975.88 
  115000    301.08694   -62835.043    7406.0132   -45119.643    218.38089    224446.13 
  115000    306.60814   -62850.903    7466.8756   -44885.591   -126.08571     224376.7 
  115000    312.09845   -63007.159    7625.6137   -44695.118    159.46167    223922.04 
  116000      301.896   -62764.295    7412.5287   -45014.677    -234.6528    224391.45 
  116000    301.02462   -62784.512     7550.565   -44926.694   -176.50158    224021.83 
  116000    302.34729   -62902.325    7620.9388   -44928.845     -211.264    225646.06 
  116000    305.27763   -62940.843    7556.0799   -44931.884   -7.3301139    224707.22 
[...]
  grid = 18 18 24
  stencil order = 5
  estimated absolute RMS force accuracy = 0.0281652
  estimated relative force accuracy = 8.48187e-05
  using double precision FFTs
  3d grid and FFT values/proc = 2156 648


---------------------------------------------------------------------
    Device Time Info (average): 
---------------------------------------------------------------------
CPU Poisson:     818.9333 s.
CPU Idle Time:   491.1383 s.
Max Mem / Proc:  0.81 MB.
---------------------------------------------------------------------


--------------------------------------------------------------------------
- Using acceleration for pppm:
-  with 16 proc(s) per device.
--------------------------------------------------------------------------
Device 0: Tesla K20X, 14 CUs, 5.2/5.6 GB, 0.73 GHZ (Mixed Precision)
--------------------------------------------------------------------------

Initializing Device and compiling on process 0...Done.
Initializing Device 0 on core 0...Done.
Initializing Device 0 on core 1...Done.
Initializing Device 0 on core 2...Done.
Initializing Device 0 on core 3...Done.
Initializing Device 0 on core 4...Done.
Initializing Device 0 on core 5...Done.
Initializing Device 0 on core 6...Done.
Initializing Device 0 on core 7...Done.
Initializing Device 0 on core 8...Done.
Initializing Device 0 on core 9...Done.
Initializing Device 0 on core 10...Done.
Initializing Device 0 on core 11...Done.
Initializing Device 0 on core 12...Done.
Initializing Device 0 on core 13...Done.
Initializing Device 0 on core 14...Done.
Initializing Device 0 on core 15...Done.



---------------------------------------------------------------------
      Device Time Info (average): 
---------------------------------------------------------------------
Neighbor (CPU):  3.6850 s.
Device Overhead: 146.7234 s.
Average split:   1.0000.
Threads / atom:  8.
Max Mem / Proc:  21.16 MB.
CPU Driver_Time: 129.4838 s.
CPU Idle_Time:   8.4809 s.
---------------------------------------------------------------------


--------------------------------------------------------------------------
- Using acceleration for lj/cut/coul/long:
-  with 16 proc(s) per device.
--------------------------------------------------------------------------
Device 0: Tesla K20X, 14 CUs, 5.4/5.6 GB, 0.73 GHZ (Mixed Precision)
--------------------------------------------------------------------------

Initializing Device and compiling on process 0...Done.
Initializing Device 0 on core 0...Done.
Initializing Device 0 on core 1...Done.
Initializing Device 0 on core 2...Done.
Initializing Device 0 on core 3...Done.
Initializing Device 0 on core 4...Done.
Initializing Device 0 on core 5...Done.
Initializing Device 0 on core 6...Done.
Initializing Device 0 on core 7...Done.
Initializing Device 0 on core 8...Done.
Initializing Device 0 on core 9...Done.
Initializing Device 0 on core 10...Application 12503341 resources: utime ~39628s, stime ~925s, Rss ~35580, inblocks ~21766, outblocks ~14094032
Done.
Initializing Device 0 on core 11...Done.
Initializing Device 0 on core 12...Done.
Initializing Device 0 on core 13...Done.
Initializing Device 0 on core 14...Done.
Initializing Device 0 on core 15...Done.

WARNING: Fix recenter should come after all other integration fixes (../fix_recenter.cpp:132)
WARNING: Fix recenter should come after all other integration fixes (../fix_recenter.cpp:132)
WARNING: Fix recenter should come after all other integration fixes (../fix_recenter.cpp:132)
WARNING: Fix recenter should come after all other integration fixes (../fix_recenter.cpp:132)
WARNING: Fix recenter should come after all other integration fixes (../fix_recenter.cpp:132)
WARNING: Fix recenter should come after all other integration fixes (../fix_recenter.cpp:132)
SHAKE stats (type/ave/delta) on step 220000
  53 0.999995 1.16518e-05 15360
  55 109.5 0.00120888
  220000    304.28396   -62961.527     7643.391   -44899.281   -180.56055    224410.62 
Loop time of 2674.45 on 16 procs for 220000 steps with 14048 atoms

Performance: 7.107 ns/day, 3.377 hours/ns, 82.260 timesteps/s
92.7% CPU use with 16 MPI tasks x no OpenMP threads

MPI task timing breakdown:
Section |  min time  |  avg time  |  max time  |%varavg| %total
---------------------------------------------------------------
Pair    | 211.84     | 223.26     | 234.53     |  52.0 |  8.35
Bond    | 69.516     | 113.79     | 150.47     | 255.0 |  4.25
Kspace  | 1340       | 1371       | 1416.2     |  65.9 | 51.26
Neigh   | 4.585      | 7.2372     | 10.374     |  74.4 |  0.27
Comm    | 286.22     | 321.39     | 358.76     | 173.3 | 12.02
Output  | 0.015335   | 0.016124   | 0.021295   |   1.1 |  0.00
Modify  | 584.53     | 610.06     | 634.89     |  90.8 | 22.81
Other   |            | 27.66      |            |       |  1.03

Nlocal:    878 ave 1247 max 519 min
Histogram: 7 1 0 0 0 0 0 0 2 6
Nghost:    10313.4 ave 11980 max 8618 min
Histogram: 7 1 0 0 0 0 0 0 0 8
Neighs:    0 ave 0 max 0 min
Histogram: 16 0 0 0 0 0 0 0 0 0

Total # of neighbors = 0
Ave neighs/atom = 0
Ave special neighs/atom = 2.99544
Neighbor list builds = 11329
Dangerous builds = 0
System init for write_restart ...
PPPM initialization ...
  G vector (1/distance) = 0.180458
  grid = 18 18 24
  stencil order = 5
  estimated absolute RMS force accuracy = 0.0278412
  estimated relative force accuracy = 8.38431e-05
  using double precision FFTs
  3d grid and FFT values/proc = 2156 648


---------------------------------------------------------------------
    Device Time Info (average): 
---------------------------------------------------------------------
CPU Poisson:     818.9291 s.
CPU Idle Time:   498.3431 s.
Max Mem / Proc:  0.81 MB.
---------------------------------------------------------------------


--------------------------------------------------------------------------
- Using acceleration for pppm:
-  with 16 proc(s) per device.
--------------------------------------------------------------------------
Device 0: Tesla K20X, 14 CUs, 5.2/5.6 GB, 0.73 GHZ (Mixed Precision)
--------------------------------------------------------------------------

Initializing Device and compiling on process 0...Done.
Initializing Device 0 on core 0...Done.
Initializing Device 0 on core 1...Done.
Initializing Device 0 on core 2...Done.
Initializing Device 0 on core 3...Done.
Initializing Device 0 on core 4...Done.
Initializing Device 0 on core 5...Done.
Initializing Device 0 on core 6...Done.
Initializing Device 0 on core 7...Done.
Initializing Device 0 on core 8...Done.
Initializing Device 0 on core 9...Done.
Initializing Device 0 on core 10...Done.
Initializing Device 0 on core 11...Done.
Initializing Device 0 on core 12...Done.
Initializing Device 0 on core 13...Done.
Initializing Device 0 on core 14...Done.
Initializing Device 0 on core 15...Done.



---------------------------------------------------------------------
      Device Time Info (average): 
---------------------------------------------------------------------
Neighbor (CPU):  3.6562 s.
Device Overhead: 148.6179 s.
Average split:   1.0000.
Threads / atom:  8.
Max Mem / Proc:  20.61 MB.
CPU Driver_Time: 130.0346 s.
CPU Idle_Time:   7.8932 s.
---------------------------------------------------------------------


Please see the log.cite file for references relevant to this simulation

Total wall time: 0:44:36

--------------------------------------------------------------------------
- Using acceleration for lj/cut/coul/long:
-  with 16 proc(s) per device.
--------------------------------------------------------------------------
Device 0: Tesla K20X, 14 CUs, 5.4/5.6 GB, 0.73 GHZ (Mixed Precision)
--------------------------------------------------------------------------

Initializing Device and compiling on process 0...Done.
Initializing Device 0 on core 0...Done.
Initializing Device 0 on core 1...Done.
Initializing Device 0 on core 2...Done.
Initializing Device 0 on core 3...Done.
Initializing Device 0 on core 4...Done.
Initializing Device 0 on core 5...Done.
Initializing Device 0 on core 6...Done.
Initializing Device 0 on core 7...Done.
Initializing Device 0 on core 8...Done.
Initializing Device 0 on core 9...Done.
Initializing Device 0 on core 10...Done.
Initializing Device 0 on core 11...Done.
Initializing Device 0 on core 12...Done.
Initializing Device 0 on core 13...Done.
Initializing Device 0 on core 14...Done.
Initializing Device 0 on core 15...Done.

WARNING: Fix recenter should come after all other integration fixes (../fix_recenter.cpp:132)
WARNING: Fix recenter should come after all other integration fixes (../fix_recenter.cpp:132)
WARNING: Fix recenter should come after all other integration fixes (../fix_recenter.cpp:132)
WARNING: Fix recenter should come after all other integration fixes (../fix_recenter.cpp:132)
WARNING: Fix recenter should come after all other integration fixes (../fix_recenter.cpp:132)
WARNING: Fix recenter should come after all other integration fixes (../fix_recenter.cpp:132)

Please see the log.cite file for references relevant to this simulation

Total wall time: 0:44:37
Application 12503343 resources: utime ~39672s, stime ~923s, Rss ~35844, inblocks ~21761, outblocks ~14094772
SHAKE stats (type/ave/delta) on step 220000
  53 0.999999 1.81531e-05 15360
  55 109.5 0.00188538
  220000    303.07887   -63008.186    7518.4213   -45112.172    702.08882    224420.51 
Loop time of 2675.43 on 16 procs for 220000 steps with 14048 atoms

Performance: 7.105 ns/day, 3.378 hours/ns, 82.230 timesteps/s
92.6% CPU use with 16 MPI tasks x no OpenMP threads

MPI task timing breakdown:
Section |  min time  |  avg time  |  max time  |%varavg| %total
---------------------------------------------------------------
Pair    | 214.67     | 227.28     | 239.39     |  54.1 |  8.49
Bond    | 68.237     | 114.63     | 150.55     | 260.8 |  4.28
Kspace  | 1333.1     | 1365.8     | 1411       |  70.2 | 51.05
Neigh   | 4.7088     | 7.3117     | 10.451     |  73.8 |  0.27
Comm    | 286.95     | 321.4      | 358.2      | 172.7 | 12.01
Output  | 0.015277   | 0.015914   | 0.018456   |   0.6 |  0.00
Modify  | 586.26     | 611.3      | 636.11     |  90.5 | 22.85
Other   |            | 27.72      |            |       |  1.04

Nlocal:    878 ave 1257 max 525 min
Histogram: 8 0 0 0 0 0 0 0 3 5
Nghost:    10340.3 ave 12009 max 8679 min
Histogram: 8 0 0 0 0 0 0 0 0 8
Neighs:    0 ave 0 max 0 min
Histogram: 16 0 0 0 0 0 0 0 0 0

Total # of neighbors = 0
Ave neighs/atom = 0
Ave special neighs/atom = 2.99544
Neighbor list builds = 11342
Dangerous builds = 0
System init for write_restart ...
PPPM initialization ...
  G vector (1/distance) = 0.180406
  grid = 18 18 24
  stencil order = 5
  estimated absolute RMS force accuracy = 0.0279439
  estimated relative force accuracy = 8.41521e-05
  using double precision FFTs
  3d grid and FFT values/proc = 2156 648


---------------------------------------------------------------------
    Device Time Info (average): 
---------------------------------------------------------------------
CPU Poisson:     819.4046 s.
CPU Idle Time:   491.9516 s.
Max Mem / Proc:  0.81 MB.
---------------------------------------------------------------------


--------------------------------------------------------------------------
- Using acceleration for pppm:
-  with 16 proc(s) per device.
--------------------------------------------------------------------------
Device 0: Tesla K20X, 14 CUs, 5.2/5.6 GB, 0.73 GHZ (Mixed Precision)
--------------------------------------------------------------------------

Initializing Device and compiling on process 0...Done.
Initializing Device 0 on core 0...Done.
Initializing Device 0 on core 1...Done.
Initializing Device 0 on core 2...Done.
Initializing Device 0 on core 3...Done.
Initializing Device 0 on core 4...Done.
Initializing Device 0 on core 5...Done.
Initializing Device 0 on core 6...Done.
Initializing Device 0 on core 7...Done.
Initializing Device 0 on core 8...Done.
Initializing Device 0 on core 9...Done.
Initializing Device 0 on core 10...Done.
Initializing Device 0 on core 11...Done.
Initializing Device 0 on core 12...Done.
Initializing Device 0 on core 13...Done.
Initializing Device 0 on core 14...Done.
Initializing Device 0 on core 15...Done.



---------------------------------------------------------------------
      Device Time Info (average): 
---------------------------------------------------------------------
Neighbor (CPU):  3.6940 s.
Device Overhead: 251.9275 s.
Average split:   1.0000.
Threads / atom:  8.
Max Mem / Proc:  21.71 MB.
CPU Driver_Time: 233.8692 s.
CPU Idle_Time:   8.3624 s.
---------------------------------------------------------------------


--------------------------------------------------------------------------
- Using acceleration for lj/cut/coul/long:
-  with 16 proc(s) per device.
--------------------------------------------------------------------------
Device 0: Tesla K20X, 14 CUs, 5.4/5.6 GB, 0.73 GHZ (Mixed Precision)
--------------------------------------------------------------------------

Initializing Device and compiling on process 0...Done.
Initializing Device 0 on core 0...Done.
Initializing Device 0 on core 1...Done.
Initializing Device 0 on core 2...Done.
Initializing Device 0 on core 3...Done.
Initializing Device 0 on core 4...Done.
Initializing Device 0 on core 5...Done.
Initializing Device 0 on core 6...Done.
Initializing Device 0 on core 7...Done.
Initializing Device 0 on core 8...Done.
Initializing Device 0 on core 9...Done.
Initializing Device 0 on core 10...Done.
Initializing Device 0 on core 11...Done.
Initializing Device 0 on core 12...Done.
Initializing Device 0 on core 13...Done.
Initializing Device 0 on core 14...Application 12503339 resources: utime ~39677s, stime ~919s, Rss ~35640, inblocks ~21766, outblocks ~14093983
Done.
Initializing Device 0 on core 15...Done.

WARNING: Fix recenter should come after all other integration fixes (../fix_recenter.cpp:132)
WARNING: Fix recenter should come after all other integration fixes (../fix_recenter.cpp:132)
WARNING: Fix recenter should come after all other integration fixes (../fix_recenter.cpp:132)
WARNING: Fix recenter should come after all other integration fixes (../fix_recenter.cpp:132)
WARNING: Fix recenter should come after all other integration fixes (../fix_recenter.cpp:132)
WARNING: Fix recenter should come after all other integration fixes (../fix_recenter.cpp:132)

Please see the log.cite file for references relevant to this simulation

Total wall time: 0:44:38
Application 12503340 resources: utime ~39682s, stime ~917s, Rss ~35828, inblocks ~21760, outblocks ~14094497
SHAKE stats (type/ave/delta) on step 220000
  53 1 1.61303e-05 15360
  55 109.5 0.00171296
  220000     301.6806    -62952.89    7435.9869   -45187.189   -378.73783    223921.35 
Loop time of 2680.06 on 16 procs for 220000 steps with 14048 atoms

Performance: 7.092 ns/day, 3.384 hours/ns, 82.088 timesteps/s
92.6% CPU use with 16 MPI tasks x no OpenMP threads

MPI task timing breakdown:
Section |  min time  |  avg time  |  max time  |%varavg| %total
---------------------------------------------------------------
Pair    | 213.82     | 228.32     | 241.28     |  59.5 |  8.52
Bond    | 67.209     | 114.31     | 150.35     | 259.8 |  4.27
Kspace  | 1332.4     | 1366.2     | 1414.1     |  72.3 | 50.98
Neigh   | 4.6338     | 7.2837     | 10.361     |  73.8 |  0.27
Comm    | 287.7      | 323.61     | 361.55     | 175.4 | 12.07
Output  | 0.015202   | 0.015855   | 0.018383   |   0.6 |  0.00
Modify  | 587.68     | 612.39     | 635.93     |  91.7 | 22.85
Other   |            | 27.94      |            |       |  1.04

Nlocal:    878 ave 1275 max 497 min
Histogram: 7 1 0 0 0 0 0 0 3 5
Nghost:    10357.9 ave 11998 max 8705 min
Histogram: 8 0 0 0 0 0 0 0 0 8
Neighs:    0 ave 0 max 0 min
Histogram: 16 0 0 0 0 0 0 0 0 0

Total # of neighbors = 0
Ave neighs/atom = 0
Ave special neighs/atom = 2.99544
Neighbor list builds = 11335
Dangerous builds = 0
System init for write_restart ...
PPPM initialization ...
  G vector (1/distance) = 0.180463
  grid = 18 18 24
  stencil order = 5
  estimated absolute RMS force accuracy = 0.0278613
  estimated relative force accuracy = 8.39034e-05
  using double precision FFTs
  3d grid and FFT values/proc = 2156 648


---------------------------------------------------------------------
    Device Time Info (average): 
---------------------------------------------------------------------
CPU Poisson:     814.2429 s.
CPU Idle Time:   496.9633 s.
Max Mem / Proc:  0.81 MB.
---------------------------------------------------------------------


--------------------------------------------------------------------------
- Using acceleration for pppm:
-  with 16 proc(s) per device.
--------------------------------------------------------------------------
Device 0: Tesla K20X, 14 CUs, 5.2/5.6 GB, 0.73 GHZ (Mixed Precision)
--------------------------------------------------------------------------

Initializing Device and compiling on process 0...Done.
Initializing Device 0 on core 0...Done.
Initializing Device 0 on core 1...Done.
Initializing Device 0 on core 2...Done.
Initializing Device 0 on core 3...Done.
Initializing Device 0 on core 4...Done.
Initializing Device 0 on core 5...Done.
Initializing Device 0 on core 6...Done.
Initializing Device 0 on core 7...Done.
Initializing Device 0 on core 8...Done.
Initializing Device 0 on core 9...Done.
Initializing Device 0 on core 10...Done.
Initializing Device 0 on core 11...Done.
Initializing Device 0 on core 12...Done.
Initializing Device 0 on core 13...Done.
Initializing Device 0 on core 14...Done.
Initializing Device 0 on core 15...Done.



---------------------------------------------------------------------
      Device Time Info (average): 
---------------------------------------------------------------------
Neighbor (CPU):  3.6920 s.
Device Overhead: 149.0262 s.
Average split:   1.0000.
Threads / atom:  8.
Max Mem / Proc:  20.68 MB.
CPU Driver_Time: 130.4384 s.
CPU Idle_Time:   8.5508 s.
---------------------------------------------------------------------


--------------------------------------------------------------------------
- Using acceleration for lj/cut/coul/long:
-  with 16 proc(s) per device.
--------------------------------------------------------------------------
Device 0: Tesla K20X, 14 CUs, 5.4/5.6 GB, 0.73 GHZ (Mixed Precision)
--------------------------------------------------------------------------

Initializing Device and compiling on process 0...Done.
Initializing Device 0 on core 0...Done.
Initializing Device 0 on core 1...Done.
Initializing Device 0 on core 2...Done.
Initializing Device 0 on core 3...Done.
Initializing Device 0 on core 4...Done.
Initializing Device 0 on core 5...Done.
Initializing Device 0 on core 6...Done.
Initializing Device 0 on core 7...Done.
Initializing Device 0 on core 8...Done.
Initializing Device 0 on core 9...Done.
Initializing Device 0 on core 10...Done.
Initializing Device 0 on core 11...Done.
Initializing Device 0 on core 12...Done.
Initializing Device 0 on core 13...Done.
Initializing Device 0 on core 14...Done.
Initializing Device 0 on core 15...Done.

WARNING: Fix recenter should come after all other integration fixes (../fix_recenter.cpp:132)
WARNING: Fix recenter should come after all other integration fixes (../fix_recenter.cpp:132)
WARNING: Fix recenter should come after all other integration fixes (../fix_recenter.cpp:132)
WARNING: Fix recenter should come after all other integration fixes (../fix_recenter.cpp:132)
WARNING: Fix recenter should come after all other integration fixes (../fix_recenter.cpp:132)
WARNING: Fix recenter should come after all other integration fixes (../fix_recenter.cpp:132)

Please see the log.cite file for references relevant to this simulation

Total wall time: 0:44:43
Application 12503342 resources: utime ~39716s, stime ~923s, Rss ~35748, inblocks ~21761, outblocks ~14094227
