LAMMPS (5 Oct 2015)
LAMMPS (5 Oct 2015)
LAMMPS (5 Oct 2015)
LAMMPS (5 Oct 2015)
LAMMPS (5 Oct 2015)
Reading restart file ...
  restart file = 5 Oct 2015, LAMMPS = 5 Oct 2015
  orthogonal box = (-26.1321 -28.1294 -38.0776) to (26.1321 28.1294 38.0776)
  2 by 2 by 4 MPI processor grid
Reading restart file ...
Reading restart file ...
  restart file = 5 Oct 2015, LAMMPS = 5 Oct 2015
  orthogonal box = (-25.9591 -28.1229 -38.3294) to (25.9591 28.1229 38.3294)
  restart file = 5 Oct 2015, LAMMPS = 5 Oct 2015
  2 by 2 by 4 MPI processor grid
  orthogonal box = (-26.0698 -28.1585 -38.2142) to (26.0698 28.1585 38.2142)
  2 by 2 by 4 MPI processor grid
Reading restart file ...
  14048 atoms
  11360 bonds
  9680 angles
  5536 dihedrals
  336 impropers
  restart file = 5 Oct 2015, LAMMPS = 5 Oct 2015
Finding 1-2 1-3 1-4 neighbors ...
 Special bond factors lj:   0          0          1         
 Special bond factors coul: 0          0          1         
  orthogonal box = (-25.9593 -28.3621 -38.1117) to (25.9593 28.3621 38.1117)
  4 = max # of 1-2 neighbors
  2 by 2 by 4 MPI processor grid
  4 = max # of 1-3 neighbors
Reading restart file ...
  6 = max # of special neighbors
  restart file = 5 Oct 2015, LAMMPS = 5 Oct 2015
  14048 atoms
  11360 bonds
  9680 angles
  5536 dihedrals
  336 impropers
7680 atoms in group water
21 atoms in group tracers
7659 atoms in group allbuttracers
6368 atoms in group bilayer
3 atoms in group t1
3 atoms in group t2
3 atoms in group t3
3 atoms in group t4
3 atoms in group t5
3 atoms in group t6
3 atoms in group t7
Finding SHAKE clusters ...
  orthogonal box = (-26.0248 -28.013 -38.4774) to (26.0248 28.013 38.4774)
Finding 1-2 1-3 1-4 neighbors ...
 Special bond factors lj:   0          0          1         
 Special bond factors coul: 0          0          1         
  14048 atoms
  11360 bonds
  9680 angles
  5536 dihedrals
  336 impropers
  2 by 2 by 4 MPI processor grid
  0 = # of size 2 clusters
  0 = # of size 3 clusters
  0 = # of size 4 clusters
  2560 = # of frozen angles
Resetting global state of Fix 4 Style npt from restart file info
  4 = max # of 1-2 neighbors
Finding 1-2 1-3 1-4 neighbors ...
 Special bond factors lj:   0          0          1         
 Special bond factors coul: 0          0          1         
Resetting global state of Fix 12 Style nvt from restart file info
  4 = max # of 1-2 neighbors
  4 = max # of 1-3 neighbors
  4 = max # of 1-3 neighbors
  14048 atoms
  11360 bonds
  9680 angles
  5536 dihedrals
  336 impropers
  6 = max # of special neighbors
PPPM initialization ...
Finding 1-2 1-3 1-4 neighbors ...
 Special bond factors lj:   0          0          1         
 Special bond factors coul: 0          0          1         
  6 = max # of special neighbors
  G vector (1/distance) = 0.180463
  grid = 18 18 24
  stencil order = 5
  estimated absolute RMS force accuracy = 0.0278613
  estimated relative force accuracy = 8.39034e-05
  using double precision FFTs
  3d grid and FFT values/proc = 2156 648
  4 = max # of 1-2 neighbors
7680 atoms in group water
21 atoms in group tracers
7659 atoms in group allbuttracers
6368 atoms in group bilayer
3 atoms in group t1
3 atoms in group t2
3 atoms in group t3
3 atoms in group t4
3 atoms in group t5
3 atoms in group t6
3 atoms in group t7
Finding SHAKE clusters ...
  4 = max # of 1-3 neighbors
7680 atoms in group water
21 atoms in group tracers
7659 atoms in group allbuttracers
6368 atoms in group bilayer
3 atoms in group t1
3 atoms in group t2
3 atoms in group t3
3 atoms in group t4
3 atoms in group t5
3 atoms in group t6
3 atoms in group t7
Finding SHAKE clusters ...
  0 = # of size 2 clusters
  0 = # of size 3 clusters
  0 = # of size 4 clusters
  2560 = # of frozen angles
  6 = max # of special neighbors
Resetting global state of Fix 4 Style npt from restart file info
  0 = # of size 2 clusters
  0 = # of size 3 clusters
  0 = # of size 4 clusters
  2560 = # of frozen angles
  14048 atoms
  11360 bonds
  9680 angles
  5536 dihedrals
  336 impropers
7680 atoms in group water
21 atoms in group tracers
7659 atoms in group allbuttracers
6368 atoms in group bilayer
3 atoms in group t1
3 atoms in group t2
3 atoms in group t3
3 atoms in group t4
3 atoms in group t5
3 atoms in group t6
3 atoms in group t7
Resetting global state of Fix 12 Style nvt from restart file info
Finding 1-2 1-3 1-4 neighbors ...
 Special bond factors lj:   0          0          1         
 Special bond factors coul: 0          0          1         
Finding SHAKE clusters ...
Resetting global state of Fix 4 Style npt from restart file info
  4 = max # of 1-2 neighbors

--------------------------------------------------------------------------
- Using acceleration for pppm:
-  with 16 proc(s) per device.
--------------------------------------------------------------------------
Device 0: Tesla K20X, 14 CUs, 5.5/5.6 GB, 0.73 GHZ (Mixed Precision)
--------------------------------------------------------------------------

Initializing Device and compiling on process 0...  0 = # of size 2 clusters
  0 = # of size 3 clusters
  0 = # of size 4 clusters
  2560 = # of frozen angles
Resetting global state of Fix 12 Style nvt from restart file info
PPPM initialization ...
  G vector (1/distance) = 0.180452
  grid = 18 18 24
  stencil order = 5
  estimated absolute RMS force accuracy = 0.0278867
  estimated relative force accuracy = 8.39801e-05
  using double precision FFTs
  3d grid and FFT values/proc = 2156 648
Done.
Initializing Device 0 on core 0...Done.
Initializing Device 0 on core 1...  4 = max # of 1-3 neighbors
Resetting global state of Fix 4 Style npt from restart file info
  6 = max # of special neighbors
PPPM initialization ...
  G vector (1/distance) = 0.180406
  grid = 18 18 24
  stencil order = 5
  estimated absolute RMS force accuracy = 0.0279439
  estimated relative force accuracy = 8.41521e-05
  using double precision FFTs
  3d grid and FFT values/proc = 2156 648
Done.
Initializing Device 0 on core 2...7680 atoms in group water
21 atoms in group tracers
7659 atoms in group allbuttracers
6368 atoms in group bilayer
3 atoms in group t1
3 atoms in group t2
3 atoms in group t3
3 atoms in group t4
3 atoms in group t5
3 atoms in group t6
3 atoms in group t7

--------------------------------------------------------------------------
- Using acceleration for pppm:
-  with 16 proc(s) per device.
--------------------------------------------------------------------------
Resetting global state of Fix 12 Style nvt from restart file info
Device 0: Tesla K20X, 14 CUs, 5.5/5.6 GB, 0.73 GHZ (Mixed Precision)
--------------------------------------------------------------------------

Initializing Device and compiling on process 0...Finding SHAKE clusters ...
PPPM initialization ...
  0 = # of size 2 clusters
  0 = # of size 3 clusters
  0 = # of size 4 clusters
  2560 = # of frozen angles
Done.
Initializing Device 0 on core 3...  G vector (1/distance) = 0.180292
  grid = 18 18 24
  stencil order = 5
  estimated absolute RMS force accuracy = 0.0281652
  estimated relative force accuracy = 8.48187e-05
  using double precision FFTs
  3d grid and FFT values/proc = 2156 648
Resetting global state of Fix 4 Style npt from restart file info

--------------------------------------------------------------------------
- Using acceleration for pppm:
-  with 16 proc(s) per device.
--------------------------------------------------------------------------
Resetting global state of Fix 12 Style nvt from restart file info
Device 0: Tesla K20X, 14 CUs, 5.5/5.6 GB, 0.73 GHZ (Mixed Precision)
--------------------------------------------------------------------------

Initializing Device and compiling on process 0...Done.
Initializing Device 0 on core 4...Done.
Initializing Device 0 on core 0...Done.
Initializing Device 0 on core 1...PPPM initialization ...
  G vector (1/distance) = 0.180458
  grid = 18 18 24
  stencil order = 5
  estimated absolute RMS force accuracy = 0.0278412
  estimated relative force accuracy = 8.38431e-05
  using double precision FFTs
  3d grid and FFT values/proc = 2156 648

--------------------------------------------------------------------------
- Using acceleration for pppm:
-  with 16 proc(s) per device.
--------------------------------------------------------------------------
Done.
Initializing Device 0 on core 2...Device 0: Tesla K20X, 14 CUs, 5.5/5.6 GB, 0.73 GHZ (Mixed Precision)
--------------------------------------------------------------------------

Initializing Device and compiling on process 0...Done.
Initializing Device 0 on core 0...Done.
Initializing Device 0 on core 1...Done.
Initializing Device 0 on core 3...Done.
Initializing Device 0 on core 5...Done.
Initializing Device 0 on core 2...Done.
Initializing Device 0 on core 0...Done.
Initializing Device 0 on core 1...Done.
Initializing Device 0 on core 3...Done.
Initializing Device 0 on core 4...Done.
Initializing Device 0 on core 2...
--------------------------------------------------------------------------
- Using acceleration for pppm:
-  with 16 proc(s) per device.
--------------------------------------------------------------------------
Device 0: Tesla K20X, 14 CUs, 5.5/5.6 GB, 0.73 GHZ (Mixed Precision)
--------------------------------------------------------------------------

Initializing Device and compiling on process 0...Done.
Initializing Device 0 on core 6...Done.
Initializing Device 0 on core 0...Done.
Initializing Device 0 on core 5...Done.
Initializing Device 0 on core 3...Done.
Initializing Device 0 on core 4...Done.
Initializing Device 0 on core 7...Done.
Initializing Device 0 on core 1...Done.
Initializing Device 0 on core 5...Done.
Initializing Device 0 on core 4...Done.
Initializing Device 0 on core 2...Done.
Initializing Device 0 on core 6...Done.
Initializing Device 0 on core 8...Done.
Initializing Device 0 on core 3...Done.
Initializing Device 0 on core 6...Done.
Initializing Device 0 on core 5...Done.
Initializing Device 0 on core 7...Done.
Initializing Device 0 on core 9...Done.
Initializing Device 0 on core 4...Done.
Initializing Device 0 on core 7...Done.
Initializing Device 0 on core 6...Done.
Initializing Device 0 on core 8...Done.
Initializing Device 0 on core 10...Done.
Initializing Device 0 on core 7...Done.
Initializing Device 0 on core 5...Done.
Initializing Device 0 on core 8...Done.
Initializing Device 0 on core 9...Done.
Initializing Device 0 on core 11...Done.
Initializing Device 0 on core 9...Done.
Initializing Device 0 on core 8...Done.
Initializing Device 0 on core 6...Done.
Initializing Device 0 on core 10...Done.
Initializing Device 0 on core 12...Done.
Initializing Device 0 on core 10...Done.
Initializing Device 0 on core 9...Done.
Initializing Device 0 on core 7...Done.
Initializing Device 0 on core 11...Done.
Initializing Device 0 on core 10...Done.
Initializing Device 0 on core 13...Done.
Initializing Device 0 on core 11...Done.
Initializing Device 0 on core 8...Done.
Initializing Device 0 on core 12...Done.
Initializing Device 0 on core 14...Done.
Initializing Device 0 on core 11...Done.
Initializing Device 0 on core 12...Done.
Initializing Device 0 on core 9...Done.
Initializing Device 0 on core 13...Done.
Initializing Device 0 on core 15...Done.
Initializing Device 0 on core 12...Done.
Initializing Device 0 on core 13...Done.
Initializing Device 0 on core 10...Done.
Initializing Device 0 on core 14...Done.

Done.
Initializing Device 0 on core 14...Done.
Initializing Device 0 on core 13...
--------------------------------------------------------------------------
- Using acceleration for lj/cut/coul/long:
-  with 16 proc(s) per device.
--------------------------------------------------------------------------
Device 0: Tesla K20X, 14 CUs, 5.4/5.6 GB, 0.73 GHZ (Mixed Precision)
--------------------------------------------------------------------------

Initializing Device and compiling on process 0...Done.
Initializing Device 0 on core 11...Done.
Initializing Device 0 on core 15...Done.
Initializing Device 0 on core 14...Done.
Initializing Device 0 on core 15...Done.

Done.
Initializing Device 0 on core 12...
--------------------------------------------------------------------------
- Using acceleration for lj/cut/coul/long:
-  with 16 proc(s) per device.
--------------------------------------------------------------------------
Device 0: Tesla K20X, 14 CUs, 5.4/5.6 GB, 0.73 GHZ (Mixed Precision)
--------------------------------------------------------------------------

Initializing Device and compiling on process 0...Done.
Initializing Device 0 on core 15...Done.

Done.
Initializing Device 0 on core 13...Done.
Initializing Device 0 on core 0...Done.
Initializing Device 0 on core 1...Done.
Initializing Device 0 on core 2...Done.
Initializing Device 0 on core 3...Done.
Initializing Device 0 on core 4...Done.
Initializing Device 0 on core 5...Done.
Initializing Device 0 on core 6...Done.
Initializing Device 0 on core 7...
--------------------------------------------------------------------------
- Using acceleration for lj/cut/coul/long:
-  with 16 proc(s) per device.
--------------------------------------------------------------------------
Device 0: Tesla K20X, 14 CUs, 5.4/5.6 GB, 0.73 GHZ (Mixed Precision)
--------------------------------------------------------------------------

Initializing Device and compiling on process 0...Done.

Done.
Initializing Device 0 on core 14...
--------------------------------------------------------------------------
- Using acceleration for lj/cut/coul/long:
-  with 16 proc(s) per device.
--------------------------------------------------------------------------
Device 0: Tesla K20X, 14 CUs, 5.4/5.6 GB, 0.73 GHZ (Mixed Precision)
--------------------------------------------------------------------------

Initializing Device and compiling on process 0...Done.
Initializing Device 0 on core 8...Done.
Initializing Device 0 on core 9...Done.
Initializing Device 0 on core 10...Done.
Initializing Device 0 on core 11...Done.
Initializing Device 0 on core 0...Done.
Initializing Device 0 on core 1...Done.
Initializing Device 0 on core 2...Done.
Initializing Device 0 on core 3...Done.
Initializing Device 0 on core 4...Done.
Initializing Device 0 on core 5...Done.
Initializing Device 0 on core 6...Done.
Initializing Device 0 on core 7...Done.
Initializing Device 0 on core 15...Done.
Initializing Device 0 on core 8...Done.
Initializing Device 0 on core 9...Done.
Initializing Device 0 on core 0...Done.
Initializing Device 0 on core 1...Done.
Initializing Device 0 on core 2...Done.
Initializing Device 0 on core 3...Done.
Initializing Device 0 on core 4...Done.
Initializing Device 0 on core 5...Done.
Initializing Device 0 on core 6...Done.
Initializing Device 0 on core 7...Done.
Initializing Device 0 on core 10...Done.
Initializing Device 0 on core 12...Done.
Initializing Device 0 on core 13...Done.
Initializing Device 0 on core 14...Done.
Initializing Device 0 on core 15...Done.

Done.
Initializing Device 0 on core 8...Done.
Initializing Device 0 on core 9...Done.
Initializing Device 0 on core 11...Done.
Initializing Device 0 on core 12...Done.

Done.
Initializing Device 0 on core 10...Done.
Initializing Device 0 on core 13...Done.
Initializing Device 0 on core 0...Done.
Initializing Device 0 on core 1...Done.
Initializing Device 0 on core 2...Done.
Initializing Device 0 on core 3...Done.
Initializing Device 0 on core 4...Done.
Initializing Device 0 on core 5...Done.
Initializing Device 0 on core 6...
--------------------------------------------------------------------------
- Using acceleration for lj/cut/coul/long:
-  with 16 proc(s) per device.
--------------------------------------------------------------------------
Device 0: Tesla K20X, 14 CUs, 5.4/5.6 GB, 0.73 GHZ (Mixed Precision)
--------------------------------------------------------------------------

Initializing Device and compiling on process 0...WARNING: Fix recenter should come after all other integration fixes (../fix_recenter.cpp:132)
Done.
Initializing Device 0 on core 14...Done.
Initializing Device 0 on core 15...Done.
Initializing Device 0 on core 7...Done.
Initializing Device 0 on core 8...WARNING: Fix recenter should come after all other integration fixes (../fix_recenter.cpp:132)
WARNING: Fix recenter should come after all other integration fixes (../fix_recenter.cpp:132)
WARNING: Fix recenter should come after all other integration fixes (../fix_recenter.cpp:132)
WARNING: Fix recenter should come after all other integration fixes (../fix_recenter.cpp:132)
WARNING: Fix recenter should come after all other integration fixes (../fix_recenter.cpp:132)
Done.

Neighbor list info ...
  0 neighbor list requests
  update every 1 steps, delay 10 steps, check yes
  max neighbors/atom: 2000, page size: 100000
  master list distance cutoff = 16
  ghost atom cutoff = 16
  binsize = 8, bins = 7 8 10
Done.
Initializing Device 0 on core 11...Done.
Initializing Device 0 on core 12...Done.
Initializing Device 0 on core 13...Done.
Initializing Device 0 on core 9...Done.
Initializing Device 0 on core 10...Setting up Verlet run ...
  Unit style  : real
  Current step: 0
  Time step   : 1
WARNING: Fix recenter should come after all other integration fixes (../fix_recenter.cpp:132)
Done.
Initializing Device 0 on core 14...Done.
Initializing Device 0 on core 15...Done.

WARNING: Fix recenter should come after all other integration fixes (../fix_recenter.cpp:132)
WARNING: Fix recenter should come after all other integration fixes (../fix_recenter.cpp:132)
WARNING: Fix recenter should come after all other integration fixes (../fix_recenter.cpp:132)
WARNING: Fix recenter should come after all other integration fixes (../fix_recenter.cpp:132)
WARNING: Fix recenter should come after all other integration fixes (../fix_recenter.cpp:132)
Neighbor list info ...
  0 neighbor list requests
  update every 1 steps, delay 10 steps, check yes
  max neighbors/atom: 2000, page size: 100000
  master list distance cutoff = 16
  ghost atom cutoff = 16
  binsize = 8, bins = 7 8 10
Done.
Initializing Device 0 on core 0...Done.
Initializing Device 0 on core 1...Done.
Initializing Device 0 on core 2...Done.
Initializing Device 0 on core 3...Done.
Initializing Device 0 on core 4...Done.
Initializing Device 0 on core 5...Done.
Initializing Device 0 on core 6...Done.
Initializing Device 0 on core 11...Done.
Initializing Device 0 on core 12...Done.
Initializing Device 0 on core 13...Done.
Initializing Device 0 on core 7...Setting up Verlet run ...
  Unit style  : real
  Current step: 0
  Time step   : 1
WARNING: Fix recenter should come after all other integration fixes (../fix_recenter.cpp:132)
Done.
Initializing Device 0 on core 14...WARNING: Fix recenter should come after all other integration fixes (../fix_recenter.cpp:132)
WARNING: Fix recenter should come after all other integration fixes (../fix_recenter.cpp:132)
WARNING: Fix recenter should come after all other integration fixes (../fix_recenter.cpp:132)
WARNING: Fix recenter should come after all other integration fixes (../fix_recenter.cpp:132)
WARNING: Fix recenter should come after all other integration fixes (../fix_recenter.cpp:132)
Neighbor list info ...
  0 neighbor list requests
  update every 1 steps, delay 10 steps, check yes
  max neighbors/atom: 2000, page size: 100000
  master list distance cutoff = 16
  ghost atom cutoff = 16
  binsize = 8, bins = 7 8 10
Done.
Initializing Device 0 on core 8...Done.
Initializing Device 0 on core 9...Done.
Initializing Device 0 on core 10...Setting up Verlet run ...
  Unit style  : real
  Current step: 0
  Time step   : 1
Done.
Initializing Device 0 on core 15...Done.

WARNING: Fix recenter should come after all other integration fixes (../fix_recenter.cpp:132)
Done.
Initializing Device 0 on core 11...Done.
Initializing Device 0 on core 12...Done.
Initializing Device 0 on core 13...Done.
Initializing Device 0 on core 14...WARNING: Fix recenter should come after all other integration fixes (../fix_recenter.cpp:132)
WARNING: Fix recenter should come after all other integration fixes (../fix_recenter.cpp:132)
WARNING: Fix recenter should come after all other integration fixes (../fix_recenter.cpp:132)
WARNING: Fix recenter should come after all other integration fixes (../fix_recenter.cpp:132)
WARNING: Fix recenter should come after all other integration fixes (../fix_recenter.cpp:132)
Done.
Initializing Device 0 on core 15...Neighbor list info ...
  0 neighbor list requests
  update every 1 steps, delay 10 steps, check yes
  max neighbors/atom: 2000, page size: 100000
  master list distance cutoff = 16
  ghost atom cutoff = 16
  binsize = 8, bins = 7 8 10
Done.

Setting up Verlet run ...
  Unit style  : real
  Current step: 0
  Time step   : 1
WARNING: Fix recenter should come after all other integration fixes (../fix_recenter.cpp:132)
WARNING: Fix recenter should come after all other integration fixes (../fix_recenter.cpp:132)
WARNING: Fix recenter should come after all other integration fixes (../fix_recenter.cpp:132)
WARNING: Fix recenter should come after all other integration fixes (../fix_recenter.cpp:132)
WARNING: Fix recenter should come after all other integration fixes (../fix_recenter.cpp:132)
WARNING: Fix recenter should come after all other integration fixes (../fix_recenter.cpp:132)
Neighbor list info ...
  0 neighbor list requests
  update every 1 steps, delay 10 steps, check yes
  max neighbors/atom: 2000, page size: 100000
  master list distance cutoff = 16
  ghost atom cutoff = 16
  binsize = 8, bins = 7 8 10
Setting up Verlet run ...
  Unit style  : real
  Current step: 0
  Time step   : 1
SHAKE stats (type/ave/delta) on step 0
  53 1 1.61303e-05 15360
  55 109.5 0.00171296
Memory usage per processor = 13.4251 Mbytes
Step Temp E_pair E_mol TotEng Press Volume 
       0     301.6806   -62952.844    7435.9869   -45187.143   -379.04917    223921.35 
SHAKE stats (type/ave/delta) on step 0
  53 0.999999 6.39202e-06 15360
  55 109.5 0.000650901
Memory usage per processor = 13.4269 Mbytes
Step Temp E_pair E_mol TotEng Press Volume 
       0    302.31646   -63060.952    7537.8639   -45171.602   -1028.7733    223856.95 
SHAKE stats (type/ave/delta) on step 0
  53 1.00001 6.3011e-06 15360
  55 109.5 0.00065703
SHAKE stats (type/ave/delta) on step 0
  53 0.999999 1.81531e-05 15360
  55 109.5 0.00188538
Memory usage per processor = 13.4107 Mbytes
Step Temp E_pair E_mol TotEng Press Volume 
Memory usage per processor = 13.4268 Mbytes
Step Temp E_pair E_mol TotEng Press Volume 
       0     303.8658   -62743.837    7619.1601    -44720.14    116.27749    224481.51 
       0    303.07887    -63008.16    7518.4213   -45112.147    701.78281    224420.51 
SHAKE stats (type/ave/delta) on step 0
  53 0.999995 1.16518e-05 15360
  55 109.5 0.00120888
Memory usage per processor = 13.409 Mbytes
Step Temp E_pair E_mol TotEng Press Volume 
       0    304.28396   -62961.544     7643.391   -44899.298   -180.80465    224410.62 
    1000     305.2511   -63087.582    7627.1878   -45008.424   -638.34567    224658.69 
    1000    301.27047   -62806.841    7474.1836   -45016.987   -774.12515     224382.9 
    1000    303.13875   -62854.735    7508.6976   -44966.396   -1.7504243    224377.76 
    1000    300.34034   -62952.828    7558.4471   -45110.558    467.62156    224294.35 
    1000    300.22325   -62898.843    7542.9037   -45076.126   -4.2432164    223775.87 
    2000    304.22985   -62859.648     7398.692   -45043.955   -51.316406    224576.99 
    2000    303.59851   -62895.701    7510.1939   -44990.123    14.363554     224308.5 
    2000     305.5305   -62758.715    7527.5827   -44769.596   -59.725421    224396.15 
    2000    305.67377   -63028.486    7543.1342    -45018.91   -436.00934    224635.91 
    2000    307.12791   -62794.498    7528.8747    -44749.39   -60.511482    223895.38 
    3000    305.12219   -62828.066    7515.1773   -44865.332    239.79578    223806.98 
    3000    305.00989   -62884.782    7600.2491   -44840.822   -338.31372    224289.62 
    3000    305.30913     -62599.9     7492.839   -44653.103   -84.258947    224702.12 
    3000    309.10515   -62970.774    7680.2002   -44706.639    147.05611    224790.84 
    3000    304.82403    -62911.28    7721.0131    -44752.92    228.96373    223919.05 
    4000    306.76196   -62804.337     7532.584    -44768.05   -31.010478    223527.31 
    4000    308.43443   -62844.528    7569.1238   -44714.435    90.670149    224563.35 
    4000    302.51154   -62946.966    7476.3752   -45112.425    513.80953    224519.06 
    4000    305.87778   -62750.154    7470.7037   -44806.022   -384.66255    223496.05 
    4000    305.17719   -62954.028    7556.9937   -44947.595    437.30163    223432.04 
    5000    303.88539   -62941.331    7665.0094   -44871.114   -88.239966    224340.58 
    5000    302.76446   -63001.018    7538.4521    -45095.74    672.63614    224436.43 
    5000    301.27402   -62922.548    7546.5856    -45060.17    156.47497    224238.66 
    5000    303.15102   -62938.594    7561.5328   -44996.999    22.027738    224416.12 
    5000    307.41578   -62916.135    7561.7591   -44828.286   -315.75604    224642.96 
    6000    304.14831   -62959.567     7556.555   -44988.802   -313.80815    224883.77 
    6000    307.44135   -62964.005    7551.9917   -44885.048    -276.4393    224553.31 
    6000    305.21633   -62891.885    7488.5954    -44952.51    122.47434    224619.06 
    6000    303.02867   -62843.436     7595.499   -44872.064    191.34516    224425.48 
    6000    303.06877   -62904.609    7454.5794   -45072.783    -9.598717     224286.7 
    7000    306.00015   -62921.877    7646.2981   -44797.961   -366.24243    224842.83 
    7000     301.5254    -63062.54    7714.9548   -45023.185   -231.35793    223581.88 
    7000    307.16025    -62857.58    7372.6514   -44967.588    208.08201    224378.18 
    7000    300.61435    -63041.75     7561.822   -45186.723    113.49204    223493.35 
    7000    304.78912    -62853.65    7452.8091   -44964.689   -606.43526    224732.95 
    8000    302.35137    -62927.67    7610.3225   -44964.666   -221.58877    223740.54 
    8000    306.47707   -62805.704     7517.839   -44793.917    300.24091    224130.62 
    8000    305.02248   -63033.253    7540.1839   -45048.927    14.103303    223684.44 
    8000    307.28376    -62931.53    7468.7166   -44941.244    -78.80058    224637.73 
    8000    306.36723   -62890.202    7582.4519   -44817.563    251.97474    224921.63 
    9000    301.07302   -62920.409    7483.6369   -45127.862    289.71357    223815.27 
    9000    300.61977   -62863.808    7533.5778    -45036.84    58.068891    223988.03 
    9000    306.31012   -62909.944     7633.014   -44788.699    159.82406    223971.32 
    9000    303.47255   -63013.563    7584.5721   -45037.919    37.145556     224205.7 
    9000    301.70615   -63066.406     7536.044   -45199.773    478.41509    223553.76 
SHAKE stats (type/ave/delta) on step 10000
  53 1 9.02866e-06 15360
  55 109.5 0.00092009
   10000    303.14032   -62813.625    7536.0297   -44897.899   -84.890091    224856.44 
SHAKE stats (type/ave/delta) on step 10000
  53 0.999999 2.73298e-05 15360
  55 109.5 0.00290477
   10000    301.94554    -62845.93    7609.3111   -44897.833    72.088129    223973.85 
SHAKE stats (type/ave/delta) on step 10000
  53 0.999999 5.98979e-06 15360
  55 109.5 0.000587913
   10000    305.73434     -62973.1    7645.3499   -44859.234   -92.907071    225150.83 
SHAKE stats (type/ave/delta) on step 10000
  53 1 6.79427e-06 15360
  55 109.5 0.000701323
   10000    303.39638   -62930.031    7556.2004   -44985.367   -61.214645    223687.63 
SHAKE stats (type/ave/delta) on step 10000
  53 0.999997 2.29348e-05 15360
  55 109.5 0.00236406
   10000    305.50711   -62943.762    7492.0991   -44990.927    -25.69063    224702.86 
   11000    304.13726    -62871.58    7469.4313   -44988.317   -235.25802    224122.65 
   11000    309.43977   -63003.017    7603.9708   -44803.653    401.05147    223877.44 
   11000    304.47084   -63024.849    7507.1943   -45092.401   -128.26131    224507.65 
   11000    307.36335   -62877.924    7493.8615   -44859.768    213.54647    224806.59 
   11000    301.12172   -63029.651    7521.4084   -45197.665   -171.40661    224139.36 
   12000    308.24841    -62935.65    7541.2252   -44839.825    157.35264    224294.51 
   12000    304.19385   -62933.099    7600.9044   -44916.425   -39.199304    224016.19 
   12000    302.86284   -62801.667    7554.1527   -44877.319    15.324695    225540.36 
   12000    303.40144   -62922.049    7485.2318   -45048.181   -130.40998    225333.43 
   12000    304.99364   -63112.934    7624.5294    -45045.25   -104.54029    224167.73 
   13000    307.51784   -62925.704    7486.6235   -44909.495   -73.891744    224930.62 
   13000    305.07706   -62939.429    7611.9951   -44881.423    -87.53576    223982.81 
   13000    306.52581   -62874.257    7619.8851   -44758.755   -183.57119    224816.41 
   13000    303.10506   -62965.872    7560.1754   -45027.209    636.43342    224438.31 
   13000    303.07282   -63077.795    7560.0919   -45140.319    153.95434    223354.95 
   14000    301.26167   -62890.776    7485.9622   -45089.444    49.437954    223975.66 
   14000    305.21736   -62942.538    7581.7093   -44910.014     190.6871     223717.9 
   14000    305.03802   -62777.367    7546.9526    -44785.74   -1.8335133    224697.85 
   14000    302.43245   -62909.139    7547.3958   -45006.285    302.82136    224499.18 
   14000    303.94026    -62911.43     7579.883   -44924.461   -231.35612    224225.38 
   15000    302.04241   -62802.038    7457.2111   -45002.724   -239.16414    224837.11 
   15000    306.64842    -62949.62    7565.2521   -44884.553   -422.14384    224419.88 
   15000    303.20871   -63041.171    7544.9563   -45114.177   -211.62923    225160.05 
   15000     303.1857    -62957.04    7676.0938   -44899.696    12.824094    225085.52 
   15000    301.00842   -63153.313    7577.2182   -45269.397    84.438174    224585.05 
   16000    304.27601   -62745.266    7590.6541   -44736.029   -132.46528    224894.63 
   16000    305.07281   -62873.295    7636.0878   -44791.342   -268.65102    225081.27 
   16000    300.66792   -62966.862    7571.2519   -45100.571    88.241461    223797.62 
   16000    303.24697   -62912.508    7613.9816   -44915.179   -218.98725    223555.01 
   16000    300.62715   -62992.903    7694.1984   -45005.062   -79.038028    224360.18 
   17000    300.94739   -62869.093    7475.2546    -45089.23   -354.08715     224510.6 
   17000    299.51766   -63025.104    7545.1597    -45224.29   -797.31712    224252.65 
   17000    304.12046   -62854.926    7644.7804   -44796.889    -420.5933     224683.9 
   17000    308.44888   -63094.788    7553.5002   -44979.823    410.19426    222982.33 
   17000    306.25829   -62944.141    7565.9416   -44891.743     0.833914    224112.27 
   18000    307.81352    -62871.93    7508.6535   -44823.568    96.826866    224414.32 
   18000    304.88853   -62975.474    7510.1853   -45025.733   -383.23745    224095.93 
   18000    302.76081   -62860.079    7665.6838   -44827.694   -333.29239    224586.89 
   18000    307.09763   -62757.642    7393.1056    -44849.34    78.959723    223512.78 
   18000    303.76586   -62974.215    7454.1178   -45118.983   -146.82239     224316.5 
   19000    304.43052   -62903.214    7640.0151   -44839.326    258.41188    224320.17 
   19000     305.7963   -62925.209    7629.0905   -44825.481    133.54849    224767.92 
   19000    304.90073   -62971.446    7629.7268   -44901.746   -294.89215    224755.73 
   19000    300.98169   -62939.749    7619.1637   -45014.802   -141.50376    224034.36 
   19000      305.532   -62882.401    7570.4043   -44850.408    320.81344    224352.27 
SHAKE stats (type/ave/delta) on step 20000
  53 1 6.52709e-06 15360
  55 109.5 0.0006871
   20000    309.83048   -62883.482    7549.5473   -44725.164    451.77091    224867.84 
SHAKE stats (type/ave/delta) on step 20000
  53 1 1.19018e-05 15360
  55 109.5 0.00122664
   20000    306.47833   -62900.735    7442.7092   -44964.035    5.5982184    224133.79 
SHAKE stats (type/ave/delta) on step 20000
  53 1 1.34213e-06 15360
  55 109.5 0.000119342
   20000     303.0269   -62882.562    7497.9483   -45008.801    229.38532    223979.68 
SHAKE stats (type/ave/delta) on step 20000
  53 1 1.97496e-05 15360
  55 109.5 0.00205423
   20000    301.88228   -63021.745    7481.2591   -45203.866   -234.08204    224023.04 
SHAKE stats (type/ave/delta) on step 20000
  53 0.999995 2.23664e-05 15360
  55 109.5 0.00236942
   20000     301.0882   -63046.503    7610.6062   -45126.466   -357.87287    224803.57 
   21000    303.22503   -62883.778    7553.0142   -44948.167    424.04893    224245.62 
   21000      300.278    -62747.59    7660.5437   -44805.358    488.54122    224691.31 
   21000    303.07326   -62955.671    7511.5871   -45066.684     117.4912    224199.15 
   21000    304.70194   -62823.877    7526.1026   -44864.608   -165.38403    225201.18 
   21000    304.64113     -62872.8    7599.3969   -44842.319    432.02714    224151.15 
   22000    304.98842   -62934.334    7552.0363   -44939.322    165.47241    224055.27 
   22000    303.19924   -62940.231    7443.5522   -45114.966    86.484283     224017.4 
   22000    305.64806   -62794.656    7597.2585   -44731.835    193.36703    224786.31 
   22000    302.32442   -62920.596    7567.6995   -45001.137   -309.34687    224636.69 
   22000    303.63519   -63015.256    7538.9322   -45079.683   -392.68216    224080.63 
   23000    305.08058    -62788.05    7460.0597   -44881.858   -85.489571    224607.45 
   23000    305.43831   -62787.018    7565.5532   -44763.085   -221.40579    224501.24 
   23000    304.01481   -62989.203    7670.8374   -44908.726    223.49717    225070.41 
   23000    308.34305   -62932.015    7566.9652   -44807.209   -75.156985    224191.59 
   23000       306.09   -63031.113    7574.7802   -44975.638   -124.63967    224644.31 
   24000    305.89776   -62888.154    7652.7352   -44761.307     89.82861    224863.38 
   24000    307.82525   -62957.296    7532.7628   -44884.422    17.713405    223906.62 
   24000    302.00917   -62929.677    7562.9525    -45025.76    317.69977    224368.22 
   24000    305.86255   -62947.692    7504.5506   -44970.235   -10.478286    223630.51 
   24000    301.88645   -62880.781    7579.5034   -44964.515   -9.5141246    223554.02 
   25000    301.87099   -63077.274    7596.5548   -45144.486   -172.28136    224020.77 
   25000    302.69276   -62817.826    7493.3927   -44960.062   -628.31111    224701.11 
   25000    304.48218   -62942.404    7621.4622     -44895.3    43.981585    224756.21 
   25000    305.73922    -62938.54    7545.1863    -44924.67     236.4749    223671.34 
   25000    306.48518   -63188.818    7541.0347   -45153.557    101.33477    223565.38 
   26000    303.25511   -62863.412    7467.6174   -45012.169    471.12617    223250.53 
   26000    306.12468   -62781.079    7573.6781   -44725.519   -346.37781    223954.57 
   26000    303.41263   -62937.822    7601.6479   -44947.154    141.09316    224093.48 
   26000    304.08406   -62973.358    7595.3368   -44966.012    20.750258     224414.5 
   26000    302.68186   -62961.293    7547.1763   -45050.119    649.11655    223556.05 
   27000    304.92447   -62898.846    7515.3387   -44942.721   -297.93185    224755.34 
   27000    302.50663   -62966.504    7555.2281   -45053.278   -527.77031    224032.97 
   27000    307.58414   -63011.325    7665.3141   -44814.156   -128.46882    224016.82 
   27000    302.86655   -62874.938    7434.8012   -45069.814    144.40196    224311.89 
   27000    304.98073   -62861.319     7486.632   -44931.974    617.42613    223536.87 
   28000    308.15187   -62872.971    7403.4648   -44918.212    198.30174    223914.42 
   28000     301.9831   -62815.414    7560.2007   -44915.141   -308.48307    224662.77 
   28000     305.5715   -62932.508    7562.2758   -44907.291   -313.64645    224376.53 
   28000    310.50324   -62978.339    7562.0071   -44784.525   -121.20497    223359.27 
   28000     306.2475   -63061.493    7558.3083   -45017.097    173.58383    223592.42 
   29000    303.33627   -62954.655    7630.8526   -44937.397   -451.59909    224297.13 
   29000     300.1431   -62773.127    7501.4539   -44994.604   -99.071741     223358.1 
   29000    301.65921   -62833.733    7523.0721   -44981.679    -364.5048    224735.48 
   29000    303.49026   -62828.548    7576.8977   -44859.972    97.982617    224484.39 
   29000    304.50002   -62808.379    7551.3233   -44830.803    830.89015    223056.52 
SHAKE stats (type/ave/delta) on step 30000
  53 1 8.80231e-06 15360
  55 109.5 0.000924168
   30000    304.98708   -63001.833    7505.6255   -45053.277   -87.066479    223625.35 
SHAKE stats (type/ave/delta) on step 30000
  53 1.00001 6.26289e-06 15360
  55 109.5 0.000634644
   30000    306.41292   -62954.607    7600.4631   -44862.392   -889.37408    224614.21 
SHAKE stats (type/ave/delta) on step 30000
  53 1 1.05157e-05 15360
  55 109.5 0.00110814
   30000    307.13027   -62774.436    7484.2947   -44773.828   -237.34963    224642.65 
SHAKE stats (type/ave/delta) on step 30000
  53 1.00001 2.10678e-05 15360
  55 109.5 0.00222878
   30000    305.77118   -63022.167    7586.0609   -44966.328   -459.92666    223522.26 
SHAKE stats (type/ave/delta) on step 30000
  53 0.999999 1.53015e-05 15360
  55 109.5 0.00158426
   30000     304.8593   -62901.085    7410.6409   -45051.889    129.41967    224099.24 
   31000    301.72653   -62737.179    7585.9035   -44819.988    581.84882    223783.82 
   31000    306.96798   -62795.849    7569.1275   -44715.964   -187.35775    225072.19 
   31000    306.79722   -62806.031     7481.487   -44819.634    132.05671    224783.08 
   31000    303.54107   -63003.941     7473.809   -45136.714    42.877453    223439.53 
   31000    301.20044   -62736.396     7470.941   -44952.182    187.97614    224387.49 
   32000    303.90489   -63052.947    7564.9732   -45082.099    502.77012    223418.09 
   32000    299.72636   -63035.944     7606.504    -45166.64    91.614649    224023.85 
   32000    299.92653   -62988.121    7597.5103   -45120.957   -24.284972    224394.04 
   32000    304.43131   -63064.239    7532.5752   -45107.763   -118.77519    223963.28 
   32000     306.4225     -62785.6    7461.0486   -44832.472    20.800157    224830.76 
   33000    303.64872   -62868.785    7495.8925   -44975.788   -154.67114    225070.93 
   33000     301.8614   -62879.765    7584.2053   -44959.654   -202.51514    225014.05 
   33000    304.23748    -62930.27    7642.7491   -44870.257   -275.94088    224262.48 
   33000    302.12958    -62919.64    7501.3838   -45073.169    76.087889    223752.35 
   33000    309.20301   -63015.739    7517.8949   -44910.558    192.36196     223844.6 
   34000    304.26366   -62861.979    7457.2924   -44986.527    140.44192    224222.12 
   34000    304.90401   -62912.866    7578.9948   -44893.785    255.25315    224447.39 
   34000    303.41689   -62885.243    7452.3898   -45043.687   -247.93945    225098.84 
   34000    306.81646   -62943.337    7557.0329   -44880.735   -86.599775    223594.18 
   34000    303.96079   -62902.363    7551.6847    -44942.89     19.79606    223987.81 
   35000    304.77295   -62818.798    7574.4822   -44808.718    206.44556    224151.14 
   35000    304.63036   -62919.353      7582.34   -44906.298    146.67791     224917.4 
   35000    304.80955   -62817.617    7569.8996   -44810.867   -26.709711    224795.92 
   35000    299.11208   -62859.887    7491.7295   -45126.391   -419.98012     224718.4 
   35000    300.40975   -62935.522    7504.0324    -45145.29    41.832249    224341.77 
   36000    303.74668   -62892.995    7571.4021   -44921.135    470.57817    224187.49 
   36000     304.9152   -62882.368    7464.9808   -44976.919   -257.14469    224958.81 
   36000    304.37508   -62704.018    7481.0719   -44800.972    395.33737    225208.55 
   36000    306.17458    -62795.67     7564.402   -44747.678   -369.86159    224250.01 
   36000    305.88206   -62815.073    7449.6648   -44891.833   -386.54652    225067.71 
   37000     306.1262   -62916.606    7560.3638   -44874.308   -436.45597    224631.09 
   37000    302.42907   -62729.124     7349.243   -45024.539     650.9584    223392.58 
   37000    303.29072   -62736.161    7615.1588   -44736.157   -109.68442    225025.01 
   37000    303.64419   -62831.362    7594.4558   -44839.958    24.555753     224139.3 
   37000    309.87041   -62881.391    7535.8076   -44735.446   -203.13586    224553.12 
   38000    301.49511   -62909.086    7527.9812   -45057.742   -392.39021    224448.53 
   38000    299.16028    -62705.61    7475.0517   -44987.141   -131.26428    224964.12 
   38000    303.81191   -62896.598    7465.6296   -45028.277   -517.93732    224983.19 
   38000    304.82873   -62877.554    7504.2561    -44935.79    23.830159    224069.86 
   38000    306.80391   -62928.619    7446.3767   -44977.103   -214.46957    224536.32 
   39000    304.11054   -62923.757    7702.1964   -44808.643   -846.66266    224301.75 
   39000    300.58004   -62850.832    7581.3774   -44977.424   -288.78437     223967.8 
   39000    301.26865   -62780.575    7532.8342   -44932.132   -100.13163    224352.66 
   39000    305.42802   -62979.221    7608.3148   -44912.878    276.05167    223705.14 
   39000    304.49719   -63022.387    7670.6363   -44925.595   -482.93556       224303 
SHAKE stats (type/ave/delta) on step 40000
  53 1 1.34569e-05 15360
  55 109.5 0.00138163
   40000    307.09079   -62882.164    7511.0889   -44856.113     -377.949    224451.85 
SHAKE stats (type/ave/delta) on step 40000
  53 1 1.61428e-05 15360
  55 109.5 0.00172256
   40000    308.06371   -62884.045    7660.9879   -44674.781    71.158401    223244.27 
SHAKE stats (type/ave/delta) on step 40000
  53 0.999997 8.29216e-06 15360
  55 109.5 0.000872443
   40000    302.61232   -62836.044     7536.926   -44937.501   -551.01628    223998.99 
SHAKE stats (type/ave/delta) on step 40000
  53 1.00001 9.50765e-06 15360
  55 109.5 0.00100843
   40000    303.23435   -63015.683    7466.9011   -45165.866    263.44756     223934.9 
SHAKE stats (type/ave/delta) on step 40000
  53 1 1.59628e-05 15360
  55 109.5 0.00166213
   40000    304.07968   -63052.139    7569.6586    -45070.62   -313.58998    224589.71 
   41000    303.79061   -62881.561    7448.3459   -45031.253   -265.37914    224779.57 
   41000    302.89911   -62929.219     7539.798   -45017.984    185.41609    224625.94 
   41000    300.99353   -62808.838    7473.3677   -45029.282   -117.52598    224103.76 
   41000    300.88089   -62816.611    7520.5814   -44993.697     110.3348    223774.81 
   41000    301.55239   -63055.015    7508.4432   -45221.248    -148.8477    223839.35 
   42000    301.49914   -62942.469    7526.4703   -45092.498   -250.45007     224045.7 
   42000    306.19444   -62642.762    7425.6802   -44732.812   -20.921695    224768.46 
   42000     305.4923   -62877.769    7644.1198    -44773.42   -158.56924    223524.19 
   42000    303.71989   -62895.042    7540.3567   -44955.144   -111.21968    224836.21 
   42000    303.27893   -62860.689    7433.3246   -45042.922   -33.951427    224159.72 
   43000    307.13438   -62903.922    7614.6902   -44772.777   -37.666433    223884.46 
   43000    303.81169   -62897.861    7536.1874    -44958.99    29.579557     224638.4 
   43000    306.63947   -62768.792     7431.887   -44837.396   -43.749351    224402.75 
   43000    303.97814   -62959.484    7508.7814    -45042.32    196.05987    224730.15 
   43000    307.18398   -62985.373    7619.7546   -44847.465    2.7302733    224188.46 
   44000    303.05076   -62696.821    7455.3751   -44864.816   -163.04773    225173.62 
   44000    302.44542   -62800.294    7579.3993   -44864.993    519.23553    224129.85 
   44000    301.97078   -62779.359    7523.2569   -44916.452    265.97162    224850.06 
   44000    305.26333   -62946.302    7573.3968   -44920.516   -193.90476    224196.76 
   44000    304.54377   -62971.163    7565.3884   -44978.024    241.45925     223846.2 
   45000    304.24959   -62786.391    7506.7014   -44862.011    408.70402    223762.24 
   45000    302.63895   -62832.006    7437.2243   -45032.254    88.459339    224621.51 
   45000    307.01032   -62948.989    7619.4675   -44817.315    715.53328    223749.77 
   45000    306.95261    -62780.78    7527.1901    -44743.36    191.37902    224459.22 
   45000     305.6795   -63018.214    7603.6571   -44947.918   -174.87532    223919.69 
   46000    306.14484   -62943.647    7506.3479   -44954.727    338.20239    224149.87 
   46000    306.92734   -62769.224    7503.3659   -44756.492    248.82081    224777.09 
   46000    301.95955   -62729.701    7572.3396   -44818.096   -229.99018    224544.43 
   46000    305.55526   -62937.246    7549.5934   -44925.267    161.14773    225339.47 
   46000     302.2963   -62887.486    7398.9778   -45137.713   -334.63871    224681.06 
   47000    303.61807   -62805.504    7488.6973   -44920.752    -73.43447     223946.1 
   47000    305.08749   -62986.291    7660.8547   -44879.068   -145.16923    223896.48 
   47000    304.04876   -62859.358    7495.4339   -44953.123     176.6829    224877.53 
   47000    303.12518    -62931.53    7543.3455   -45009.007    352.69153    223971.22 
   47000    307.83453   -62947.928     7552.267   -44855.232    239.87611    223437.08 
   48000    306.80485   -62910.532    7531.6656   -44873.695    861.34036    223794.75 
   48000    300.70775   -62986.686    7481.0858   -45209.197    198.03158    224730.18 
   48000     303.0103   -62911.707    7432.4381   -45104.025    402.42654    224254.99 
   48000    304.57329   -62813.685    7532.1116   -44852.811    395.08894    224093.12 
   48000    303.21992    -62899.95    7583.3209   -44934.207    500.89923    224311.34 
   49000    307.17183   -62781.443    7507.2496   -44756.456    557.32582    224815.99 
   49000    304.61541   -62777.185    7507.0934   -44839.888    169.87682    225625.54 
   49000    304.25798   -62957.023    7489.2014   -45049.856    302.22123     224748.1 
   49000    303.84316   -62915.665    7647.4771   -44864.427    -109.0451    225265.84 
   49000    302.84457   -62915.722     7465.147   -45081.006    138.31589    224253.24 
SHAKE stats (type/ave/delta) on step 50000
  53 0.999996 1.24303e-05 15360
  55 109.5 0.00127462
   50000    305.99814   -62806.152    7537.6379   -44790.965     394.9845     224188.4 
SHAKE stats (type/ave/delta) on step 50000
  53 0.999997 1.61103e-05 15360
  55 109.5 0.00169102
   50000    302.01061   -62997.016    7578.6281   -45077.374   -60.945573    225156.32 
SHAKE stats (type/ave/delta) on step 50000
  53 1.00001 1.18323e-05 15360
  55 109.5 0.00120008
   50000    299.58921    -62958.39    7614.7552   -45085.531   -32.417661    223771.73 
SHAKE stats (type/ave/delta) on step 50000
  53 0.999999 8.53768e-06 15360
  55 109.5 0.000904504
   50000    306.18749   -62797.798    7485.4891   -44828.276   -67.793265    223852.83 
SHAKE stats (type/ave/delta) on step 50000
  53 0.99999 2.57083e-05 15360
  55 109.5 0.002674
   50000    304.02526   -62961.368    7524.0794   -45027.292    197.15418    223860.97 
   51000    306.90487   -62818.023    7501.8232   -44807.604    77.681044    223980.35 
   51000    304.22305   -62935.567    7491.8316   -45026.967    282.49631    224161.96 
   51000    306.71963   -62891.715    7451.8296   -44937.633   -558.17806    224705.67 
   51000    302.27234   -62923.647     7515.874   -45057.797   -192.91346    223655.15 
   51000    304.16178   -62916.681    7622.2848   -44879.725   -460.04761    223680.23 
   52000    308.44739   -62851.167    7500.4772   -44789.277   -119.07634     224587.6 
   52000    302.50827   -62971.972    7528.5067   -45085.411    245.58349     224727.1 
   52000      306.912   -62987.923    7572.2405   -44906.842    -169.4684    224143.49 
   52000    303.98862    -62880.36     7500.347   -44971.271    25.886368    223409.46 
   52000     299.9275   -62830.282    7457.0033   -45103.592   -120.99495     224333.9 
   53000    305.06765   -62885.839    7525.2657   -44914.885   -247.63127    224254.84 
   53000    304.30061   -62984.113    7497.5144   -45067.173    35.659472    224072.36 
   53000    301.18683   -63082.687    7600.9475   -45168.932    -468.0085    224022.88 
   53000    303.67652    -62979.97    7502.5291   -45079.385   -460.53477    224226.37 
   53000    302.03775   -62871.059    7604.4152   -44924.701   -268.33061    224663.67 
   54000    302.09345   -62953.155    7523.8394   -45085.465    -209.8576    223850.59 
   54000    310.13225   -62693.738    7486.5982   -44588.037   -198.65208    224770.32 
   54000    301.97298   -63019.874    7663.1532   -45016.995     107.6166    223854.37 
   54000    301.27547   -62767.549      7593.87   -44857.837   -214.02868    224716.99 
   54000    303.63587   -62924.114      7515.07    -45012.38    -374.1087    224080.64 
   55000     306.9175    -62988.41    7507.2928   -44972.089   -226.78385    223645.55 
   55000    305.11343   -63043.567    7573.0718   -45023.239   -423.15733    225029.24 
   55000    304.40523   -62817.958    7390.0343   -45004.917   -126.92767     223915.2 
   55000     306.1904   -62899.498    7532.1543   -44883.212   -92.728363    224334.06 
   55000    305.54748   -62953.708    7564.5369   -44927.052    82.768818    223477.46 
   56000    303.15567   -62818.248    7570.6769   -44867.349   -327.80138    224557.51 
   56000    305.34199   -62848.183    7529.2827   -44863.817   -482.56414    224023.23 
   56000    306.56183   -62861.982    7546.7827   -44818.349    171.33468    224618.43 
   56000    299.12092   -62851.834    7605.5401   -45004.225   -102.52628    223922.55 
   56000    306.39988   -62861.916    7647.3856   -44723.225   -155.19877    223731.39 
   57000    307.48183   -62926.545    7595.2524   -44802.941    234.87659    224511.86 
   57000    301.40578   -62804.964    7484.2978   -45000.362   -214.11013    225022.51 
   57000    305.36457   -63014.022    7519.6583   -45038.508    56.687304    223854.58 
   57000    303.12904   -63000.941    7520.1514   -45101.479   -201.60805    223666.65 
   57000    307.34996   -62865.749    7518.4299   -44823.483    -201.3435    224261.56 
   58000    301.27015   -62862.458    7436.6655   -45110.132    63.171821    224300.79 
   58000    305.87574   -62846.975    7442.8927   -44930.724   -436.84252    225240.63 
   58000      305.474   -63069.968      7662.33   -44948.036   -84.414475    224028.57 
   58000    305.51664   -62840.798    7588.7736   -44790.962   -137.74494    225041.16 
   58000    299.85596   -62812.584    7365.0901   -45180.256    264.44453    224271.02 
   59000     301.4888   -62963.465     7478.548    -45161.77    4.6363105    223704.36 
   59000    303.29134   -62728.083    7534.9841   -44808.232   -101.52165    225543.19 
   59000    306.42654   -62959.584    7396.1281   -45071.239   -366.27274    224234.25 
   59000    303.59256   -62810.712    7605.4849   -44810.046     356.2916    223386.26 
   59000    302.60513   -63069.096    7639.8789   -45067.846   -489.13826    224675.05 
SHAKE stats (type/ave/delta) on step 60000
  53 0.999999 1.16942e-05 15360
  55 109.5 0.00121454
   60000    301.47722   -62749.218    7491.6369    -44934.83    246.83594     224801.2 
SHAKE stats (type/ave/delta) on step 60000
  53 1 6.28823e-06 15360
  55 109.5 0.000611515
   60000    307.19663   -62722.502    7452.1733   -44751.742    72.045919    224749.36 
SHAKE stats (type/ave/delta) on step 60000
  53 0.999999 1.02001e-05 15360
  55 109.5 0.00103743
   60000     300.4093   -62955.627    7668.7733    -45000.67   -342.86859    224613.23 
SHAKE stats (type/ave/delta) on step 60000
  53 1.00001 8.21026e-06 15360
  55 109.5 0.000875939
   60000    307.37576   -62910.458    7620.9891   -44764.749    25.761912       223979 
SHAKE stats (type/ave/delta) on step 60000
  53 1 1.10255e-05 15360
  55 109.5 0.00113908
   60000    304.97197    -62929.61    7621.5739   -44865.623   -120.67466    224406.07 
   61000    301.59622    -62985.47    7570.9594   -45087.686   -452.14329    223749.93 
   61000     305.0007   -62797.047    7509.7551   -44843.896    84.596094    224712.83 
   61000    305.31282   -62867.178    7530.9663   -44882.128    529.51106    224581.37 
   61000     305.4633   -62804.415    7639.6721   -44705.507   -87.864656    224733.11 
   61000    301.96041    -62856.51    7549.5925   -44967.622   -40.279681     225113.8 
   62000    304.65687   -63085.553    7570.6514   -45083.278    340.49984     223107.6 
   62000    304.27817   -62832.641    7601.8553   -44812.129    195.50058    224470.37 
   62000    300.13908   -62992.827    7558.6023   -45157.293    537.99305    223178.44 
   62000    299.69214   -62917.423    7630.2236   -45025.571   -275.44543    223669.79 
   62000    308.22942   -62953.426    7475.9455   -44923.531    450.61563     223588.5 
   63000    303.08117   -62918.112    7512.7609   -45027.681    271.54924    224233.72 
   63000    305.06885   -62921.492    7520.4351   -44955.327    370.08177    225160.48 
   63000    303.45565   -62924.737    7665.8291   -44868.415   -157.14198    223972.21 
   63000    310.03648   -62844.993    7456.1214   -44773.047    44.951607     224737.1 
   63000    303.89346   -63069.578    7523.5142    -45140.58    51.253372    224314.19 
   64000    299.76826   -62991.321    7629.7049   -45097.382    463.75737    224112.32 
   64000    306.51255   -62974.436    7381.6513   -45097.622    327.99445     224009.6 
   64000    301.14507   -63017.528     7436.824   -45269.326   -272.01525    224154.56 
   64000    303.66251   -62924.394     7641.253   -44885.565    313.18532    224031.93 
   64000    307.35396   -62933.297    7498.7303   -44910.593    563.01217    223379.24 
   65000    302.06421   -62905.162    7489.3017   -45073.011   -308.69653    223892.14 
   65000    301.42402   -62744.184    7606.7645    -44816.49    225.85426    225060.32 
   65000    304.14322   -63013.536    7538.6543   -45060.846    -196.1892    224232.85 
   65000    303.28594   -62808.731    7494.0386    -44930.01   -88.050837    224175.88 
   65000      307.941   -63006.469    7552.6577   -44909.738    370.43311    223603.86 
   66000    301.44091   -62825.964    7511.9727   -44992.484   -447.82528    224948.86 
   66000    306.41068   -62910.028    7508.3456   -44910.008    479.46622    223930.22 
   66000    304.84631   -62780.128    7668.6563   -44673.362   -16.219437    225059.64 
   66000    301.59805   -62945.449    7675.4935   -44943.068    90.171364    223741.61 
   66000    301.98061   -62942.469     7495.676   -45106.807   -171.95924    223588.44 
   67000    304.38189   -63008.386    7562.6281    -45023.55    196.67229    224268.93 
   67000    307.86647   -62915.642    7530.8014   -44843.318    115.56661    223576.92 
   67000    302.34322   -62921.898    7596.1201   -44973.375   -78.483141    223478.98 
   67000    303.41413   -62818.854    7589.4565   -44840.326    128.04294    224749.72 
   67000    305.59866   -62842.156    7586.8392   -44791.446   -225.66521    224039.48 
   68000    304.53692   -62855.306    7405.8956   -45021.895   -94.037496    223642.94 
   68000    308.86468   -62964.096    7575.7893   -44812.605   -475.69634    224033.98 
   68000    300.48029   -62915.758    7462.4351   -45164.708   -143.61548    223592.23 
   68000    303.29832   -62797.636    7552.1838   -44860.346   -60.834389    224489.09 
   68000    306.22648   -62953.211    7431.3115   -45036.532   -602.34315    224638.64 
   69000    306.52446   -62824.742    7537.0643   -44792.107   -557.90388    223992.04 
   69000    301.43116   -62921.123    7529.0477   -45070.902    177.42161    224617.34 
   69000    304.77556   -62946.165    7621.5832   -44888.895    -406.7663    224618.46 
   69000    300.93679   -62850.593    7464.6165   -45081.731    90.597358    223513.47 
   69000    304.32188   -62888.526    7643.2963   -44825.077   -578.66967    223835.33 
SHAKE stats (type/ave/delta) on step 70000
  53 1.00001 1.25522e-05 15360
  55 109.5 0.00130874
   70000    306.41599   -62907.716     7483.275   -44932.585    43.187064    224269.29 
SHAKE stats (type/ave/delta) on step 70000
  53 1 2.63482e-05 15360
  55 109.5 0.00276174
   70000    303.44696   -62792.394    7530.7513   -44871.447   -472.57313    224623.25 
SHAKE stats (type/ave/delta) on step 70000
  53 1 1.68771e-05 15360
  55 109.5 0.00177342
   70000    301.16092   -62852.384    7483.0091   -45057.455      496.081     223892.7 
SHAKE stats (type/ave/delta) on step 70000
  53 1.00001 1.49764e-05 15360
  55 109.5 0.00158467
   70000    305.57262   -62870.434     7494.437   -44913.018   -423.90044    224508.83 
SHAKE stats (type/ave/delta) on step 70000
  53 0.999998 1.61814e-05 15360
  55 109.5 0.00170136
   70000    302.85432   -62904.044    7559.5891   -44974.552    389.26036    223766.81 
   71000     303.0723    -62915.35    7477.1988   -45060.785   -202.15885     224548.7 
   71000     304.9711    -62906.55    7614.5159   -44849.651     -222.084    223390.77 
   71000    303.31405   -62928.792    7534.3776   -45008.769    250.91769     224113.7 
   71000    305.10594    -62808.35    7524.0478   -44837.303    460.54272    225089.89 
   71000    306.40734   -62823.995    7455.7471   -44876.687    5.1104106    224060.22 
   72000    304.97545   -62938.463    7576.3479   -44919.584   -164.00341    224580.45 
   72000    302.46719   -62889.878    7554.4314   -44978.799   -504.57337     224608.4 
   72000    303.56603   -62735.898     7491.254   -44850.372   -178.25979    225736.85 
   72000    305.44557   -62880.764    7489.7281   -44932.407     105.0417    225240.83 
   72000    308.44879   -62855.111    7419.2913   -44874.359    195.07182    224196.49 
   73000    306.85292   -62871.527    7558.7787    -44805.93   -58.071906    223799.94 
   73000    304.34847    -62850.51    7646.1189   -44783.328   -253.50552    223605.31 
   73000     300.8874   -62878.312     7625.064   -44950.693    355.48579    224877.03 
   73000    307.31225   -62945.911    7588.1987   -44835.168   -39.227106    224663.41 
   73000    305.79894   -62844.344    7508.8985   -44864.717    401.23828    223639.48 
   74000    300.82788   -62871.721    7505.8657   -45065.339     324.5346    223909.88 
   74000    306.57722   -62985.334    7467.6621   -45020.294    32.971902     224369.6 
   74000     304.8341   -62738.273     7590.306   -44710.275   -77.729546    223956.91 
   74000    306.31107   -63036.752    7487.3054   -45061.183   -140.99432    223810.91 
   74000    301.05772   -62869.758    7554.1211    -45007.25    213.73291     223304.7 
   75000    305.91805   -62968.596    7650.0577   -44843.731    789.32505    223780.17 
   75000    303.31338   -62842.787     7555.885   -44901.281    -303.7424    224767.85 
   75000    306.46103   -62876.146    7476.8994   -44905.848   -284.63435    224701.55 
   75000    300.69817   -62884.407    7635.8366   -44952.495   -343.32031    224803.33 
   75000    304.35527   -63011.688    7634.2233   -44956.168   -728.33333    224479.19 
   76000    301.67228   -62847.387    7650.6538   -44867.304    132.40507    224110.65 
   76000    305.33543   -62914.786    7446.8474   -45013.081    910.17142    224115.02 
   76000    300.74333   -62935.108     7465.833   -45171.653   -157.18045    223180.69 
   76000    305.18637   -62790.488     7612.939   -44727.795   -374.81586    223508.89 
   76000    304.82691   -63020.323    7505.0885   -45077.789   -84.284467    223602.07 
   77000      304.474   -62722.964    7526.0343   -44771.567    641.99864    223988.55 
   77000    302.41896   -62829.272    7423.6535   -45050.623   -25.222496    224432.56 
   78000    307.54532   -62663.113    7560.2776    -44572.31    549.48111    224236.53 
   77000    303.50614   -62923.931    7491.9148   -45039.794    105.73639    224749.57 
   77000     306.6859   -62721.772    7514.4628   -44706.211   -138.13673    224231.44 
   78000    302.19429    -62947.49     7617.112   -44983.075      47.7529    223997.56 
   77000    307.62327   -62910.469    7534.6165   -44842.658    270.88148    224137.06 
   79000    302.49347   -62882.881    7564.1866   -44961.147    206.58198    223713.34 
   78000    302.07279   -62779.832     7548.649    -44888.04   -205.69856     224263.3 
   78000    303.11225   -62845.915    7714.6769   -44752.503   -234.91104    224778.13 
   79000    301.76446   -62906.729    7426.5457   -45147.598   -24.630853    223819.28 
   78000    304.59145   -63031.209    7586.3628   -45015.463    648.86292    223885.12 
SHAKE stats (type/ave/delta) on step 80000
  53 1 2.53335e-05 15360
  55 109.5 0.00262514
   80000    299.87029   -63025.756    7568.5918   -45189.436    23.275931    224492.95 
   79000    306.80695   -62805.213    7549.6411   -44750.328   -29.754039    224955.29 
   79000    301.49804   -62812.579    7450.7586   -45038.357   -45.388638    223817.42 
SHAKE stats (type/ave/delta) on step 80000
  53 0.999999 1.92917e-05 15360
  55 109.5 0.00205739
   80000    307.26069   -62959.206    7593.9483   -44844.478   -92.637969    224249.27 
   79000    304.06378   -62855.148    7531.0718   -44912.761    412.97728    224364.79 
   81000    306.36884   -62872.133    7566.2251   -44815.665    59.673556     224317.4 
SHAKE stats (type/ave/delta) on step 80000
  53 1 1.47668e-05 15360
  55 109.5 0.0015168
   80000    307.02995   -62912.381     7613.717   -44785.785    26.582792    224468.14 
SHAKE stats (type/ave/delta) on step 80000
  53 1 1.31475e-05 15360
  55 109.5 0.0013681
   80000    301.98394   -62742.993    7526.8912   -44876.001    280.30084    224198.02 
   81000    301.36343   -62973.561    7671.7436   -44982.963    311.34238    223616.46 
SHAKE stats (type/ave/delta) on step 80000
  53 1 1.06934e-05 15360
  55 109.5 0.00110408
   80000    301.51076   -62937.195    7417.0767    -45196.22    348.99582    223755.51 
   82000    305.46353   -63005.925    7498.8674   -45047.814    91.279729    224136.01 
   81000    302.35031   -62858.213    7475.7186   -45029.849    189.66822    224488.18 
   81000    303.15758   -62786.051    7466.9953   -44938.769    402.30496    224073.19 
   82000    305.95582   -63007.176    7510.9504   -45020.125    65.948443    223888.44 
   81000    306.73339   -62862.107    7523.3053   -44836.078   -75.075316    224729.17 
   83000    307.93838   -62938.105    7552.9678   -44841.153    451.40044    224065.56 
   82000    302.26092   -62821.385    7578.9403   -44892.861    303.80064    224289.38 
   82000    302.83794    -62961.68    7623.3444   -44968.993    316.94033    224530.48 
   83000    309.92926   -62984.274    7627.5623   -44744.558   -145.57896    223940.59 
   82000    305.67019   -62883.587    7658.5629   -44758.704   -180.55806    224257.98 
   84000    302.24756   -62839.772    7672.4748    -44818.17    98.522998    224348.22 
   83000    304.98028   -62947.593    7564.7969   -44940.099    185.54114    224533.64 
   83000    302.88808   -62959.281    7496.1411   -45092.081    545.33662    223812.66 
   84000     306.2618   -62952.462    7550.8182   -44915.067    128.39506    224206.35 
   83000    306.68079    -62825.93    7479.6101   -44845.396    -49.22558    223943.74 
   85000     302.8053   -62965.887    7546.7627   -45050.899    151.30716    223905.54 
   84000    306.81294   -63017.385    7517.9777   -44993.959   -85.770451    223808.85 
   84000    302.91562   -62763.268    7589.2446   -44802.021   -18.456017    224093.55 
   85000    303.10321   -62834.552    7577.8089   -44878.318   -192.88358    223878.99 
   84000     302.2889    -62958.72    7462.2237   -45145.953    283.32932    223525.93 
   86000    302.23111   -62853.291    7602.3349   -44902.392    451.26004    223276.83 
   85000    306.54573   -62666.211    7517.0363   -44652.876   -66.230752    224387.89 
   85000     305.0244   -62830.198     7586.207   -44799.783    450.93167    223894.88 
   86000    305.40958   -62740.168    7502.5713   -44780.201   -91.887157    224848.86 
   85000    302.45955   -62909.979    7484.9364   -45068.656    81.563818    224220.75 
   87000    307.27386    -62731.69    7472.4851   -44737.975   -33.102393    223376.06 
   86000    306.88658   -62842.626    7556.3257   -44778.331   -94.099508     224581.8 
   86000    304.38268   -62913.975    7568.3325   -44923.407    226.40637    223507.81 
   87000    305.60221   -63110.761    7654.8173   -44991.952    38.181655    223780.44 
   86000    305.67481   -62860.539     7574.593   -44819.467     212.6062    224261.88 
   88000    308.17535    -62867.71     7400.535   -44915.077    727.38024     223550.5 
   87000    298.61637   -62971.375    7648.9578   -45097.624   -117.32999    224157.22 
   87000    304.10143   -63108.296    7526.8217   -45168.869   -305.16836    223933.56 
   88000    301.53911   -63099.837    7749.7883   -45025.179    176.79106     224335.7 
   87000    308.06929   -62850.483    7548.8896   -44753.127    244.30803    224370.16 
   89000    303.31185   -62718.266    7548.9997   -44783.697     444.1403    223805.43 
   88000    302.62048   -62904.776     7506.934   -45035.946   -451.60138    224798.94 
   88000    308.67651   -62862.612    7562.0153   -44731.339   -443.23266    224099.38 
   89000    302.21883   -62933.238     7699.313   -44885.782    250.33302    224484.47 
   88000    306.75759    -62964.76    7618.1459   -44843.061   -28.402782    223181.69 
SHAKE stats (type/ave/delta) on step 90000
  53 0.999994 1.07342e-05 15360
  55 109.5 0.00110992
   90000    303.77191   -62795.161     7506.035   -44887.804   -273.01762    223982.01 
   89000    305.06518   -62876.935    7652.6053   -44778.725   -24.891545     224085.3 
   89000    305.62948   -62855.523    7632.0306   -44758.566    6.2073957    223922.67 
SHAKE stats (type/ave/delta) on step 90000
  53 1 1.65557e-05 15360
  55 109.5 0.00176118
   90000    306.12811   -63167.542    7504.5136   -45181.029    354.51093    223132.19 
   89000    306.87525   -62963.757    7549.2366   -44906.938    406.75269    224003.12 
   91000    307.33812   -62924.372    7619.6513    -44781.29   -746.52763    223948.32 
SHAKE stats (type/ave/delta) on step 90000
  53 0.999999 9.13506e-06 15360
  55 109.5 0.000959478
   90000    302.18402   -62937.607    7465.9877   -45124.668    50.876027    224158.66 
SHAKE stats (type/ave/delta) on step 90000
  53 0.999996 9.25245e-06 15360
  55 109.5 0.000963558
   90000    306.23448   -62699.565    7551.1275   -44662.795   -478.91663    224934.71 
   91000    304.18666   -63015.572    7517.3922   -45082.657    22.838387    223793.75 
SHAKE stats (type/ave/delta) on step 90000
  53 1 2.36043e-05 15360
  55 109.5 0.00251509
   90000     303.9278   -62957.306    7451.7401   -45098.907    388.30688    223451.94 
   92000    306.25736   -62822.151    7547.6335   -44788.092   -306.14834    224572.88 
   91000    307.43323   -62679.771    7498.3137   -44654.769    75.612569    224918.78 
   91000    305.33881   -62934.069    7524.3803   -44954.716    96.939236    224417.35 
   91000    302.81384   -62966.046      7526.88   -45070.649    56.237207    223127.23 
   92000    303.06937   -62855.713    7656.8726   -44821.574   -165.58886    224866.11 
   93000    304.65344   -62667.189    7526.1623   -44709.521   -49.218664    224872.59 
   92000    305.17488   -62887.734    7346.4655   -45091.909    335.45935    224291.38 
   92000    301.99555   -63011.864     7534.175    -45137.19   -43.020312    224374.86 
   92000    303.55747   -62993.837    7534.4571   -45065.401    569.10112    223582.92 
   93000    308.48628   -62844.232    7427.3925   -44854.095    38.198846    224082.91 
   94000    303.96956    -62849.85    7615.8376   -44825.923   -18.288442    224682.12 
   93000    303.93834   -62924.341    7522.0063   -44995.314   -48.976279    225241.94 
   93000     305.7739   -62785.331    7453.8145   -44861.645    499.29792    224552.26 
   93000    303.29435   -62947.602    7640.9612   -44921.671   -37.462961    224106.92 
   94000    306.65209   -62870.704    7542.4424   -44828.321    281.46433    224327.48 
   95000    303.52908   -62789.452    7491.4992   -44904.946   -331.32808    223900.18 
   94000    306.95584   -62836.609    7547.6542   -44778.613    241.15591    224849.54 
   94000    304.39998   -62858.047    7528.0862   -44907.133    19.899947    224090.19 
   95000    301.72844   -62949.183    7667.0684   -44950.762   -265.45816    224535.14 
   94000    298.94371   -62991.516    7659.4386   -45096.076   -66.917271    224797.66 
   96000    302.85142   -62810.247    7519.8558   -44920.587   -146.54621    224063.09 
   95000    301.07329   -63045.996    7501.2007   -45235.875    256.09975    224292.98 
   95000    300.18142   -62793.361    7494.5339   -45020.446    360.82413    224745.24 
   95000    304.12209   -62922.316    7551.1399   -44957.864    385.73956    223715.14 
   96000     301.0976   -62773.698     7605.905   -44858.041    56.190523    224237.92 
   97000    303.55316   -63044.096    7476.6738   -45173.591   -230.50189    224090.35 
   96000    303.35225   -62734.106    7596.3037    -44750.85   -42.807516    224919.03 
   96000    304.97962   -62819.383    7566.4487    -44810.26    38.640952    224034.81 
   96000    304.47042   -62968.499    7536.1693    -45007.09    424.36087    224436.34 
   97000    303.14488   -62869.841    7565.2035   -44924.786    671.30718    224319.93 
   98000    303.67812   -62856.644    7549.3407   -44909.193    70.974524    224020.94 
   97000    302.43246   -63042.087    7606.9847   -45079.644    218.19281    223453.77 
   97000    305.81674   -62988.348    7615.3814   -44901.628     12.44465    224629.68 
   97000    304.38727   -62893.124    7531.5091   -44939.223   -382.70023    224807.45 
   98000    304.69022   -62961.738    7482.2368   -45046.736   -108.42575    224122.21 
   99000    300.92632   -62898.198    7481.3952   -45112.915    215.11242    223328.99 
   98000    300.70124   -62960.201    7621.5687   -45042.452   -154.42737    224435.09 
   98000    305.08164   -62807.361    7463.9832    -44897.21    -47.63151    224780.67 
   98000    299.55556   -62726.651    7383.5474   -45086.152   -505.76305    224536.37 
   99000    303.75372   -62919.879    7535.2165   -44983.963    259.02719    223583.18 
SHAKE stats (type/ave/delta) on step 100000
  53 1 2.96059e-05 15360
  55 109.5 0.00310411
  100000    303.77191   -62973.156    7593.9264   -44977.907   -24.151672    223910.95 
   99000    304.28268   -62936.477    7552.7274   -44964.939     70.59829    223253.59 
   99000    309.12029   -62871.846    7608.3535   -44679.039   -349.17818    224775.71 
   99000    305.18997   -62935.904     7467.546   -45018.481   -388.03951    223642.18 
SHAKE stats (type/ave/delta) on step 100000
  53 0.999997 1.01924e-05 15360
  55 109.5 0.00101626
  100000    304.93643   -62901.956    7692.0749   -44768.686   -345.47849    224588.23 
  101000    301.55709   -63007.761    7481.4475   -45200.828     734.2273    224035.49 
SHAKE stats (type/ave/delta) on step 100000
  53 0.999998 1.32505e-05 15360
  55 109.5 0.00138866
  100000    300.05739   -62929.741     7559.306     -45096.3    -540.2055    224446.49 
SHAKE stats (type/ave/delta) on step 100000
  53 0.999999 9.64426e-06 15360
  55 109.5 0.00100392
  100000    304.44657   -62959.792    7575.1645   -44960.204   -443.26573    224262.27 
SHAKE stats (type/ave/delta) on step 100000
  53 0.999997 1.18146e-05 15360
  55 109.5 0.00124929
  100000     306.7115   -63019.768    7428.0148   -45089.778   -355.01649     223331.1 
  101000    304.93659   -62977.354    7510.2109   -45025.942   -270.80292    223985.97 
  102000    307.74401   -63031.578    7516.6961   -44977.553    536.99031    224052.23 
  101000    301.65283     -62979.4    7537.8447   -45112.792   -631.93443    223900.64 
  101000    304.57224    -63089.46    7553.7949    -45106.94   -300.40584     223733.2 
  101000    306.78811   -63011.072    7599.5392   -44906.935   -440.72563    224553.12 
  102000    304.24864   -62848.879      7562.75   -44868.484   -172.36982    224218.78 
  103000    307.26569   -63125.303    7518.4358   -45085.916    554.60194    223327.98 
  102000    302.30752   -63020.458    7515.4423   -45153.835   -96.594844    224114.05 
  102000    305.45694   -62851.437    7622.4659   -44769.953   -595.57525    224469.72 
  102000    304.81176   -62954.313     7526.952   -44990.434   -266.36717    223546.33 
  103000    301.04544   -63022.168    7605.9205   -45108.281    387.47612    224150.43 
  104000    304.93826   -62876.659    7580.1756   -44855.225   -218.61118    223974.42 
  103000    308.11235   -62954.506    7521.1448    -44883.42   -273.64295    224118.44 
  103000    303.87097   -63065.912    7590.6345   -45070.564   -321.07574    223910.13 
  103000     308.0486   -62824.078    7589.5005    -44686.82   -178.17998    224386.59 
  104000    301.59159   -63022.206    7535.3165   -45160.223    68.258723    223826.51 
  105000    300.17928    -62825.34    7551.2402   -44995.792   -36.182597    225072.29 
  104000    301.87677   -62876.397    7506.8745   -45033.092    325.96978    223472.67 
  104000    306.10113   -62904.143    7591.2687   -44831.798   -129.13717       223801 
  104000    302.40711   -62903.294     7501.787   -45046.917    -138.1783    223842.79 
  105000    302.92561   -62840.209    7464.5489   -45003.316    480.77872    223217.79 
  106000    304.12058   -62831.778    7530.2395   -44888.278    261.09466    223771.29 
  105000    304.66303   -62755.085    7553.8079   -44769.443   -230.92407    225044.25 
  105000    303.17922   -62774.957    7579.9687   -44813.961   -271.32038     224181.9 
  105000    307.20698   -62969.033    7598.7021    -44851.39    178.89491    223645.46 
  106000    300.69756   -62810.187    7656.6843   -44857.448    102.23797    223963.05 
  107000    303.24017   -63015.242    7585.3148   -45046.813   -105.28197    223937.14 
  106000    301.77503   -63006.522     7563.296   -45110.279   -89.579874    224304.92 
  106000    307.10258   -62874.935    7611.9885   -44747.581    2.3905084    223956.81 
  106000     304.4553   -63089.643    7548.9376   -45115.983   -18.157274    223093.68 
  107000    304.99765   -62757.689    7503.6063   -44810.791    338.13481    223208.41 
  108000    301.41125   -62869.993    7583.4486   -44966.053    104.94962    224230.38 
  107000      302.969   -62916.966    7476.3375   -45066.798   -179.21625    224396.64 
  107000    300.95702   -62942.303    7574.6805   -45062.684   -435.00045     224116.1 
  107000    305.69431   -63041.113    7647.3084   -44926.659    257.77081    224232.51 
  108000     305.1246   -62866.755    7482.4662    -44936.65    14.476452    224151.58 
  109000    305.44336     -62906.2    7510.2311   -44937.416    173.49914    224031.06 
  108000    304.18042   -62849.219    7539.9057   -44894.004    56.243885    224966.28 
  108000    302.48025   -62983.255    7560.0012   -45066.159    480.10998    224367.82 
  108000    305.85969   -63046.152    7512.4923   -45060.851   -104.34352    223988.87 
  109000    301.73612   -62966.102    7552.5598   -45081.927   -21.793821    223081.53 
SHAKE stats (type/ave/delta) on step 110000
  53 0.999998 1.82394e-05 15360
  55 109.5 0.0019265
  110000    303.83759    -62887.51    7495.8819   -44988.058    12.729209    224818.11 
SHAKE stats (type/ave/delta) on step 110000
  53 0.999994 8.44943e-06 15360
  55 109.5 0.000881064
  110000    303.03822   -62888.694    7348.1697   -45164.325     357.1396    223538.86 
  109000    304.62711   -62863.256    7664.8652   -44767.787    314.79043    224493.75 
  109000    302.27076   -63000.442    7678.0463   -44972.474    137.26206    224267.31 
  109000    306.18313    -62856.18     7537.364   -44834.933   -505.37428    225413.73 
  111000    304.33709   -62967.328    7654.3794   -44892.275   -423.94524    224343.34 
SHAKE stats (type/ave/delta) on step 110000
  53 1 1.2098e-05 15360
  55 109.5 0.00126362
  110000    299.55929   -62820.912    7583.5827   -44980.249    5.1041572    224283.33 
  111000    306.77641   -62940.965     7543.763   -44893.005    265.88659    224068.46 
SHAKE stats (type/ave/delta) on step 110000
  53 1 9.67206e-06 15360
  55 109.5 0.00101413
  110000    302.01249   -62841.533    7533.3702   -44967.085    603.43582    224414.72 
SHAKE stats (type/ave/delta) on step 110000
  53 1 4.38947e-06 15360
  55 109.5 0.000432394
  110000    304.76505   -62827.501    7555.6108   -44836.562   -170.36324    224561.12 
  112000    304.10661       -62946    7584.6185   -44948.599    584.27802    224352.27 
  111000    309.39429   -62909.287    7472.7517     -44842.7   -126.59183    224244.15 
  112000    307.76259    -62980.85    7477.8184   -44965.067    160.15747    224794.65 
  111000     301.4702   -63071.473    7575.8027   -45173.161    643.74146     223257.7 
  111000    305.86991   -62927.025    7556.2432   -44897.623    546.88137    223029.85 
  113000    305.55451   -62836.519     7527.285   -44846.875   -210.03571    224892.22 
  112000    308.39323   -62830.339    7516.5481   -44754.232    2.9266315    225549.74 
  113000    302.23337   -62917.208    7496.1366    -45072.43   -130.03441    224141.74 
  112000    307.41887   -62924.712     7527.447   -44871.069    465.65951    223457.19 
  112000    302.00627   -62915.536     7563.933   -45010.738   -47.249459     223985.5 
  114000    306.85494   -62877.093    7467.2451   -44902.962    471.64549    224147.23 
  113000    302.58834   -63036.229     7554.223    -45121.21   -62.815795    224752.97 
  114000     303.7523   -62818.951    7461.1942   -44957.106   -202.04332     224213.8 
  113000    303.59724   -62819.494    7559.5507   -44864.602   -117.15086    224257.57 
  113000     301.7087   -62861.917    7498.8119   -45032.429    2.3669938    224213.22 
  115000     300.9595   -62894.897    7420.3682   -45169.505   -29.704145    225397.99 
  114000    300.43534   -62977.339    7688.2996   -45001.963     -501.273    224443.55 
  115000    305.84577    -62903.34    7487.5727   -44943.435    18.329336    224307.31 
  114000    305.55755   -62786.489    7574.3165    -44749.71    194.23031    224584.37 
  114000    303.88272   -62943.275    7598.0505   -44940.109   -57.463072    223775.11 
  116000    303.38161   -62999.923    7523.3712   -45088.594    47.484233    225087.02 
  115000    301.67072   -63024.006    7586.3692    -45108.26    284.27117    223977.82 
  116000    305.31261   -62906.333    7621.5148   -44830.742    76.521093    224080.31 
  115000    308.61489   -63042.859    7596.0575   -44879.653   -74.859091    223721.51 
  115000    305.71919   -62848.776    7456.6746   -44924.104     56.42524     224610.9 
  117000    304.22974   -62809.328    7607.4294   -44784.901   -192.38451    225130.42 
  116000    306.68538   -62981.404    7589.9879   -44890.336   -452.38356     224069.5 
  117000    303.17117   -62797.679    7559.9185   -44857.009   -41.684549     224689.8 
  116000    299.15468   -63018.211    7572.3656    -45202.62    128.36823    223717.23 
  116000    302.35225   -62801.051    7418.0206   -45030.319    180.42379     224917.2 
  118000    305.80697    -62821.01    7561.6943   -44788.313    67.945327    225053.81 
  117000    302.39549   -62910.284    7599.9812    -44956.11   -62.639788     224296.6 
  118000    305.35382    -62799.99    7565.3322    -44779.17    59.209634     224600.3 
  117000    308.69317   -62813.042    7546.2724   -44696.941    18.833042    224423.52 
  117000    308.11649   -62716.033    7389.3389   -44776.612     589.3208    223434.61 
  119000     304.2922   -62840.262    7427.7495   -44993.376    78.652262    224496.88 
  118000    300.63229   -62910.063    7514.1857   -45102.058    193.94476    224787.42 
[...]
---------------------------------------------------------------------


--------------------------------------------------------------------------
- Using acceleration for pppm:
-  with 16 proc(s) per device.
--------------------------------------------------------------------------
Device 0: Tesla K20X, 14 CUs, 5.2/5.6 GB, 0.73 GHZ (Mixed Precision)
--------------------------------------------------------------------------

Initializing Device and compiling on process 0...Done.
Initializing Device 0 on core 0...Done.
Initializing Device 0 on core 1...Done.
Initializing Device 0 on core 2...Done.
Initializing Device 0 on core 3...Done.
Initializing Device 0 on core 4...Done.
Initializing Device 0 on core 5...Done.
Initializing Device 0 on core 6...Done.
Initializing Device 0 on core 7...Done.
Initializing Device 0 on core 8...Done.
Initializing Device 0 on core 9...Done.
Initializing Device 0 on core 10...Done.
Initializing Device 0 on core 11...Done.
Initializing Device 0 on core 12...Done.
Initializing Device 0 on core 13...Done.
Initializing Device 0 on core 14...Done.
Initializing Device 0 on core 15...Done.



---------------------------------------------------------------------
      Device Time Info (average): 
---------------------------------------------------------------------
Neighbor (CPU):  6.3962 s.
Device Overhead: 252.7572 s.
Average split:   1.0000.
Threads / atom:  8.
Max Mem / Proc:  20.49 MB.
CPU Driver_Time: 228.0475 s.
CPU Idle_Time:   14.3451 s.
---------------------------------------------------------------------


--------------------------------------------------------------------------
- Using acceleration for lj/cut/coul/long:
-  with 16 proc(s) per device.
--------------------------------------------------------------------------
Device 0: Tesla K20X, 14 CUs, 5.4/5.6 GB, 0.73 GHZ (Mixed Precision)
--------------------------------------------------------------------------

Initializing Device and compiling on process 0...Done.
Initializing Device 0 on core 0...Done.
Initializing Device 0 on core 1...Done.
Initializing Device 0 on core 2...Done.
Initializing Device 0 on core 3...Done.
Initializing Device 0 on core 4...Done.
Initializing Device 0 on core 5...Done.
Initializing Device 0 on core 6...Done.
Initializing Device 0 on core 7...Done.
Initializing Device 0 on core 8...Done.
Initializing Device 0 on core 9...Done.
Initializing Device 0 on core 10...Done.
Initializing Device 0 on core 11...Done.
Initializing Device 0 on core 12...Done.
Initializing Device 0 on core 13...Done.
Initializing Device 0 on core 14...Done.
Initializing Device 0 on core 15...Done.

WARNING: Fix recenter should come after all other integration fixes (../fix_recenter.cpp:132)
WARNING: Fix recenter should come after all other integration fixes (../fix_recenter.cpp:132)
WARNING: Fix recenter should come after all other integration fixes (../fix_recenter.cpp:132)
WARNING: Fix recenter should come after all other integration fixes (../fix_recenter.cpp:132)
WARNING: Fix recenter should come after all other integration fixes (../fix_recenter.cpp:132)
WARNING: Fix recenter should come after all other integration fixes (../fix_recenter.cpp:132)

Please see the log.cite file for references relevant to this simulation

Total wall time: 1:20:06
SHAKE stats (type/ave/delta) on step 380000
  53 0.999995 2.06938e-05 15360
  55 109.5 0.0022087
SHAKE stats (type/ave/delta) on step 380000
  53 1 9.56061e-06 15360
  55 109.5 0.00100416
  380000    307.51942   -63015.144    7543.3023   -44942.203   -193.44803     223741.8 
Loop time of 4805.55 on 16 procs for 380000 steps with 14048 atoms

Performance: 6.832 ns/day, 3.513 hours/ns, 79.075 timesteps/s
91.9% CPU use with 16 MPI tasks x no OpenMP threads

MPI task timing breakdown:
Section |  min time  |  avg time  |  max time  |%varavg| %total
---------------------------------------------------------------
Pair    | 371.61     | 392.1      | 412.06     |  68.4 |  8.16
Bond    | 120.7      | 197.17     | 263.77     | 342.6 |  4.10
Kspace  | 2343.9     | 2403.4     | 2478.1     |  88.1 | 50.01
Neigh   | 7.9022     | 12.414     | 17.81      |  99.0 |  0.26
Comm    | 500.54     | 560.69     | 625.78     | 230.0 | 11.67
Output  | 0.16801    | 0.16919    | 0.17366    |   0.3 |  0.00
Modify  | 1147       | 1190.6     | 1233.3     | 112.8 | 24.78
Other   |            | 48.98      |            |       |  1.02

  380000    306.09581   -62869.671    7434.3301   -44954.448    237.37452    225394.14 
Loop time of 4805.43 on 16 procs for 380000 steps with 14048 atoms

Performance: 6.832 ns/day, 3.513 hours/ns, 79.077 timesteps/s
91.5% CPU use with 16 MPI tasks x no OpenMP threads
Nlocal:    878 ave 1248 max 507 min
Histogram: 7 1 0 0 0 0 0 0 2 6
Nghost:    10339.8 ave 11992 max 8736 min
Histogram: 8 0 0 0 0 0 0 0 0 8
Neighs:    0 ave 0 max 0 min
Histogram: 16 0 0 0 0 0 0 0 0 0

Total # of neighbors = 0
Ave neighs/atom = 0
Ave special neighs/atom = 2.99544
Neighbor list builds = 19567
Dangerous builds = 0
System init for write_restart ...
PPPM initialization ...
  G vector (1/distance) = 0.180529
  grid = 18 18 24
  stencil order = 5
  estimated absolute RMS force accuracy = 0.0277433
  estimated relative force accuracy = 8.35481e-05
  using double precision FFTs
  3d grid and FFT values/proc = 2156 648

MPI task timing breakdown:
Section |  min time  |  avg time  |  max time  |%varavg| %total
---------------------------------------------------------------
Pair    | 367.71     | 394.21     | 419.61     |  85.3 |  8.20
Bond    | 121.15     | 200.51     | 264.83     | 339.5 |  4.17
Kspace  | 2346.2     | 2403.8     | 2487.2     |  92.9 | 50.02
Neigh   | 7.8847     | 12.377     | 17.81      |  98.7 |  0.26
Comm    | 499.63     | 561.3      | 626.85     | 228.4 | 11.68
Output  | 0.17376    | 0.17492    | 0.17933    |   0.3 |  0.00
Modify  | 1140.6     | 1183.3     | 1224.2     | 112.7 | 24.62
Other   |            | 49.77      |            |       |  1.04

Nlocal:    878 ave 1264 max 514 min
Histogram: 6 2 0 0 0 0 0 0 4 4
Nghost:    10318.8 ave 11959 max 8687 min
Histogram: 8 0 0 0 0 0 0 0 0 8
Neighs:    0 ave 0 max 0 min
Histogram: 16 0 0 0 0 0 0 0 0 0

Total # of neighbors = 0
Ave neighs/atom = 0
Ave special neighs/atom = 2.99544
Neighbor list builds = 19551
Dangerous builds = 0
System init for write_restart ...
PPPM initialization ...
  G vector (1/distance) = 0.1803
  grid = 18 18 24
  stencil order = 5
  estimated absolute RMS force accuracy = 0.0280933
  estimated relative force accuracy = 8.46023e-05
  using double precision FFTs
  3d grid and FFT values/proc = 2156 648


---------------------------------------------------------------------
    Device Time Info (average): 
---------------------------------------------------------------------
CPU Poisson:     1434.7308 s.
CPU Idle Time:   872.1331 s.
Max Mem / Proc:  0.81 MB.
---------------------------------------------------------------------


--------------------------------------------------------------------------
- Using acceleration for pppm:
-  with 16 proc(s) per device.
--------------------------------------------------------------------------
Device 0: Tesla K20X, 14 CUs, 5.2/5.6 GB, 0.73 GHZ (Mixed Precision)
--------------------------------------------------------------------------

Initializing Device and compiling on process 0...

---------------------------------------------------------------------
    Device Time Info (average): 
---------------------------------------------------------------------
CPU Poisson:     1443.0313 s.
CPU Idle Time:   864.9523 s.
Max Mem / Proc:  0.81 MB.
---------------------------------------------------------------------


--------------------------------------------------------------------------
- Using acceleration for pppm:
-  with 16 proc(s) per device.
--------------------------------------------------------------------------
Device 0: Tesla K20X, 14 CUs, 5.2/5.6 GB, 0.73 GHZ (Mixed Precision)
--------------------------------------------------------------------------

Initializing Device and compiling on process 0...Done.
Initializing Device 0 on core 0...Done.
Initializing Device 0 on core 1...Done.
Initializing Device 0 on core 2...Done.
Initializing Device 0 on core 3...Done.
Initializing Device 0 on core 4...Done.
Initializing Device 0 on core 5...Done.
Initializing Device 0 on core 6...Done.
Initializing Device 0 on core 7...Done.
Initializing Device 0 on core 8...Done.
Initializing Device 0 on core 0...Done.
Initializing Device 0 on core 1...Done.
Initializing Device 0 on core 2...Done.
Initializing Device 0 on core 3...Done.
Initializing Device 0 on core 4...Done.
Initializing Device 0 on core 5...Done.
Initializing Device 0 on core 6...Done.
Initializing Device 0 on core 7...Done.
Initializing Device 0 on core 8...Done.
Initializing Device 0 on core 9...Done.
Initializing Device 0 on core 9...Done.
Initializing Device 0 on core 10...Done.
Initializing Device 0 on core 11...Done.
Initializing Device 0 on core 12...Done.
Initializing Device 0 on core 13...Done.
Initializing Device 0 on core 14...Done.
Initializing Device 0 on core 15...Done.
Initializing Device 0 on core 10...Done.
Initializing Device 0 on core 11...Done.
Initializing Device 0 on core 12...Done.
Initializing Device 0 on core 13...Done.
Initializing Device 0 on core 14...Done.
Initializing Device 0 on core 15...Done.

Done.



---------------------------------------------------------------------
      Device Time Info (average): 
---------------------------------------------------------------------
Neighbor (CPU):  6.3747 s.
Device Overhead: 259.4100 s.
Average split:   1.0000.
Threads / atom:  8.
Max Mem / Proc:  20.37 MB.
CPU Driver_Time: 230.7655 s.
CPU Idle_Time:   14.0409 s.
---------------------------------------------------------------------



---------------------------------------------------------------------
      Device Time Info (average): 
---------------------------------------------------------------------
Neighbor (CPU):  6.2771 s.
Device Overhead: 258.2864 s.
Average split:   1.0000.
Threads / atom:  8.
Max Mem / Proc:  20.96 MB.
CPU Driver_Time: 225.2208 s.
CPU Idle_Time:   13.5968 s.
---------------------------------------------------------------------


--------------------------------------------------------------------------
- Using acceleration for lj/cut/coul/long:
-  with 16 proc(s) per device.
--------------------------------------------------------------------------
Device 0: Tesla K20X, 14 CUs, 5.4/5.6 GB, 0.73 GHZ (Mixed Precision)
--------------------------------------------------------------------------

Initializing Device and compiling on process 0...Done.
Initializing Device 0 on core 0...Done.
Initializing Device 0 on core 1...
--------------------------------------------------------------------------
- Using acceleration for lj/cut/coul/long:
-  with 16 proc(s) per device.
--------------------------------------------------------------------------
Device 0: Tesla K20X, 14 CUs, 5.4/5.6 GB, 0.73 GHZ (Mixed Precision)
--------------------------------------------------------------------------

Initializing Device and compiling on process 0...Done.
Initializing Device 0 on core 0...Done.
Initializing Device 0 on core 1...Done.
Initializing Device 0 on core 2...Done.
Initializing Device 0 on core 2...Done.
Initializing Device 0 on core 3...Done.
Initializing Device 0 on core 3...Done.
Initializing Device 0 on core 4...Done.
Initializing Device 0 on core 4...Done.
Initializing Device 0 on core 5...Done.
Initializing Device 0 on core 5...Done.
Initializing Device 0 on core 6...Done.
Initializing Device 0 on core 6...Done.
Initializing Device 0 on core 7...Done.
Initializing Device 0 on core 7...Done.
Initializing Device 0 on core 8...Done.
Initializing Device 0 on core 8...Done.
Initializing Device 0 on core 9...Application 12503662 network throttled: 1 node throttled, 00:07:15 node-seconds
Application 12503662 balanced injection 100, after throttle 100
Application 12503662 resources: utime ~70427s, stime ~2411s, Rss ~36044, inblocks ~14295, outblocks ~24371691
Done.
Initializing Device 0 on core 9...Done.
Initializing Device 0 on core 10...Done.
Initializing Device 0 on core 10...Done.
Initializing Device 0 on core 11...Done.
Initializing Device 0 on core 11...Done.
Initializing Device 0 on core 12...Done.
Initializing Device 0 on core 13...Done.
Initializing Device 0 on core 12...Done.
Initializing Device 0 on core 14...Done.
Initializing Device 0 on core 13...Done.
Initializing Device 0 on core 15...Done.
Initializing Device 0 on core 14...Done.

Done.
Initializing Device 0 on core 15...WARNING: Fix recenter should come after all other integration fixes (../fix_recenter.cpp:132)
Done.

WARNING: Fix recenter should come after all other integration fixes (../fix_recenter.cpp:132)
WARNING: Fix recenter should come after all other integration fixes (../fix_recenter.cpp:132)
WARNING: Fix recenter should come after all other integration fixes (../fix_recenter.cpp:132)
WARNING: Fix recenter should come after all other integration fixes (../fix_recenter.cpp:132)
WARNING: Fix recenter should come after all other integration fixes (../fix_recenter.cpp:132)
WARNING: Fix recenter should come after all other integration fixes (../fix_recenter.cpp:132)
WARNING: Fix recenter should come after all other integration fixes (../fix_recenter.cpp:132)
WARNING: Fix recenter should come after all other integration fixes (../fix_recenter.cpp:132)
WARNING: Fix recenter should come after all other integration fixes (../fix_recenter.cpp:132)
WARNING: Fix recenter should come after all other integration fixes (../fix_recenter.cpp:132)
WARNING: Fix recenter should come after all other integration fixes (../fix_recenter.cpp:132)

Please see the log.cite file for references relevant to this simulation

Total wall time: 1:20:08

Please see the log.cite file for references relevant to this simulation

Total wall time: 1:20:08
Application 12503666 network throttled: 1 node throttled, 00:07:14 node-seconds
Application 12503666 balanced injection 100, after throttle 100
Application 12503666 resources: utime ~70389s, stime ~2355s, Rss ~35932, inblocks ~14295, outblocks ~24370649
Application 12503665 network throttled: 1 node throttled, 00:07:14 node-seconds
Application 12503665 balanced injection 100, after throttle 100
Application 12503665 resources: utime ~70646s, stime ~2224s, Rss ~35956, inblocks ~14290, outblocks ~24371086
SHAKE stats (type/ave/delta) on step 380000
  53 0.999999 8.08098e-06 15360
  55 109.5 0.000846487
  380000    305.47533   -62967.901    7614.1506   -44894.103   -344.19419    223199.85 
Loop time of 4811.81 on 16 procs for 380000 steps with 14048 atoms

Performance: 6.823 ns/day, 3.517 hours/ns, 78.972 timesteps/s
91.6% CPU use with 16 MPI tasks x no OpenMP threads

MPI task timing breakdown:
Section |  min time  |  avg time  |  max time  |%varavg| %total
---------------------------------------------------------------
Pair    | 372.94     | 395.68     | 415.56     |  71.7 |  8.22
Bond    | 121.96     | 199.09     | 262.74     | 338.6 |  4.14
Kspace  | 2356.7     | 2411.4     | 2489.4     |  88.7 | 50.11
Neigh   | 7.9331     | 12.466     | 17.856     |  98.7 |  0.26
Comm    | 502.83     | 564.13     | 629.83     | 234.7 | 11.72
Output  | 0.17228    | 0.17347    | 0.17772    |   0.3 |  0.00
Modify  | 1135.2     | 1180.4     | 1224.5     | 116.5 | 24.53
Other   |            | 48.51      |            |       |  1.01

Nlocal:    878 ave 1252 max 510 min
Histogram: 7 1 0 0 0 0 0 0 1 7
Nghost:    10340.9 ave 12017 max 8667 min
Histogram: 8 0 0 0 0 0 0 0 0 8
Neighs:    0 ave 0 max 0 min
Histogram: 16 0 0 0 0 0 0 0 0 0

Total # of neighbors = 0
Ave neighs/atom = 0
Ave special neighs/atom = 2.99544
Neighbor list builds = 19557
Dangerous builds = 0
System init for write_restart ...
PPPM initialization ...
  G vector (1/distance) = 0.180443
  grid = 18 18 24
  stencil order = 5
  estimated absolute RMS force accuracy = 0.0279472
  estimated relative force accuracy = 8.41621e-05
  using double precision FFTs
  3d grid and FFT values/proc = 2156 648


---------------------------------------------------------------------
    Device Time Info (average): 
---------------------------------------------------------------------
CPU Poisson:     1446.3019 s.
CPU Idle Time:   870.4091 s.
Max Mem / Proc:  1.23 MB.
---------------------------------------------------------------------


--------------------------------------------------------------------------
- Using acceleration for pppm:
-  with 16 proc(s) per device.
--------------------------------------------------------------------------
Device 0: Tesla K20X, 14 CUs, 5.2/5.6 GB, 0.73 GHZ (Mixed Precision)
--------------------------------------------------------------------------

Initializing Device and compiling on process 0...Done.
Initializing Device 0 on core 0...Done.
Initializing Device 0 on core 1...Done.
Initializing Device 0 on core 2...Done.
Initializing Device 0 on core 3...Done.
Initializing Device 0 on core 4...Done.
Initializing Device 0 on core 5...Done.
Initializing Device 0 on core 6...Done.
Initializing Device 0 on core 7...Done.
Initializing Device 0 on core 8...Done.
Initializing Device 0 on core 9...Done.
Initializing Device 0 on core 10...Done.
Initializing Device 0 on core 11...Done.
Initializing Device 0 on core 12...Done.
Initializing Device 0 on core 13...Done.
Initializing Device 0 on core 14...Done.
Initializing Device 0 on core 15...Done.



---------------------------------------------------------------------
      Device Time Info (average): 
---------------------------------------------------------------------
Neighbor (CPU):  6.3099 s.
Device Overhead: 264.2788 s.
Average split:   1.0000.
Threads / atom:  8.
Max Mem / Proc:  20.21 MB.
CPU Driver_Time: 230.2762 s.
CPU Idle_Time:   14.5284 s.
---------------------------------------------------------------------


--------------------------------------------------------------------------
- Using acceleration for lj/cut/coul/long:
-  with 16 proc(s) per device.
--------------------------------------------------------------------------
Device 0: Tesla K20X, 14 CUs, 5.4/5.6 GB, 0.73 GHZ (Mixed Precision)
--------------------------------------------------------------------------

Initializing Device and compiling on process 0...Done.
Initializing Device 0 on core 0...Done.
Initializing Device 0 on core 1...Done.
Initializing Device 0 on core 2...Done.
Initializing Device 0 on core 3...Done.
Initializing Device 0 on core 4...Done.
Initializing Device 0 on core 5...Done.
Initializing Device 0 on core 6...Done.
Initializing Device 0 on core 7...Done.
Initializing Device 0 on core 8...Done.
Initializing Device 0 on core 9...Done.
Initializing Device 0 on core 10...Done.
Initializing Device 0 on core 11...Done.
Initializing Device 0 on core 12...Done.
Initializing Device 0 on core 13...Done.
Initializing Device 0 on core 14...Done.
Initializing Device 0 on core 15...Done.

WARNING: Fix recenter should come after all other integration fixes (../fix_recenter.cpp:132)
WARNING: Fix recenter should come after all other integration fixes (../fix_recenter.cpp:132)
WARNING: Fix recenter should come after all other integration fixes (../fix_recenter.cpp:132)
WARNING: Fix recenter should come after all other integration fixes (../fix_recenter.cpp:132)
WARNING: Fix recenter should come after all other integration fixes (../fix_recenter.cpp:132)
WARNING: Fix recenter should come after all other integration fixes (../fix_recenter.cpp:132)

Please see the log.cite file for references relevant to this simulation

Total wall time: 1:20:14
Application 12503663 network throttled: 1 node throttled, 00:07:15 node-seconds
Application 12503663 balanced injection 100, after throttle 100
Application 12503663 resources: utime ~70551s, stime ~2363s, Rss ~35644, inblocks ~14296, outblocks ~24370935
