LAMMPS (5 Oct 2015)
LAMMPS (5 Oct 2015)
LAMMPS (5 Oct 2015)
LAMMPS (5 Oct 2015)
Reading data file ...
  orthogonal box = (-25.8501 -28.3005 -38.3301) to (25.8501 28.3005 38.3301)
  2 by 2 by 4 MPI processor grid
  reading atoms ...
Reading data file ...
  orthogonal box = (-25.8501 -28.3005 -38.453) to (25.8501 28.3005 38.453)
  2 by 2 by 4 MPI processor grid
  reading atoms ...
Reading data file ...
  orthogonal box = (-25.8501 -28.3005 -38.2418) to (25.8501 28.3005 38.2418)
  14048 atoms
  2 by 2 by 4 MPI processor grid
  reading atoms ...
  reading velocities ...
Reading data file ...
  14048 velocities
  scanning bonds ...
  orthogonal box = (-25.8501 -28.3005 -38.3628) to (25.8501 28.3005 38.3628)
  2 by 2 by 4 MPI processor grid
  reading atoms ...
  3 = max bonds/atom
  scanning angles ...
  14048 atoms
  reading velocities ...
  6 = max angles/atom
  scanning dihedrals ...
  14048 velocities
  scanning bonds ...
  2 = max dihedrals/atom
  scanning impropers ...
  14048 atoms
  2 = max impropers/atom
  3 = max bonds/atom
  reading velocities ...
  scanning angles ...
  reading bonds ...
  14048 velocities
  scanning bonds ...
  6 = max angles/atom
  11360 bonds
  14048 atoms
  reading velocities ...
  scanning dihedrals ...
  3 = max bonds/atom
  scanning angles ...
  reading angles ...
  2 = max dihedrals/atom
  scanning impropers ...
  2 = max impropers/atom
  9680 angles
  14048 velocities
  scanning bonds ...
  6 = max angles/atom
  scanning dihedrals ...
  reading bonds ...
  reading dihedrals ...
  5536 dihedrals
  2 = max dihedrals/atom
  scanning impropers ...
  3 = max bonds/atom
  scanning angles ...
  reading impropers ...
  336 impropers
  11360 bonds
  reading angles ...
Finding 1-2 1-3 1-4 neighbors ...
 Special bond factors lj:   0          0          1         
 Special bond factors coul: 0          0          1         
  2 = max impropers/atom
  6 = max angles/atom
  scanning dihedrals ...
  reading bonds ...
  9680 angles
  reading dihedrals ...
  2 = max dihedrals/atom
  scanning impropers ...
  5536 dihedrals
  reading impropers ...
  11360 bonds
  reading angles ...
  2 = max impropers/atom
  336 impropers
  4 = max # of 1-2 neighbors
  4 = max # of 1-3 neighbors
  6 = max # of special neighbors
7680 atoms in group water
21 atoms in group tracers
7659 atoms in group allbuttracers
6368 atoms in group bilayer
3 atoms in group t1
3 atoms in group t2
3 atoms in group t3
3 atoms in group t4
3 atoms in group t5
3 atoms in group t6
3 atoms in group t7
Finding SHAKE clusters ...
  0 = # of size 2 clusters
  0 = # of size 3 clusters
  0 = # of size 4 clusters
  2560 = # of frozen angles
Finding 1-2 1-3 1-4 neighbors ...
 Special bond factors lj:   0          0          1         
 Special bond factors coul: 0          0          1         
PPPM initialization ...
  reading bonds ...
  G vector (1/distance) = 0.18032
  grid = 18 18 24
  stencil order = 5
  estimated absolute RMS force accuracy = 0.0281198
  estimated relative force accuracy = 8.46821e-05
  using double precision FFTs
  3d grid and FFT values/proc = 2156 648
  9680 angles
  reading dihedrals ...
  11360 bonds
  reading angles ...
  5536 dihedrals
  reading impropers ...
  336 impropers

--------------------------------------------------------------------------
- Using acceleration for pppm:
-  with 16 proc(s) per device.
--------------------------------------------------------------------------
Finding 1-2 1-3 1-4 neighbors ...
 Special bond factors lj:   0          0          1         
 Special bond factors coul: 0          0          1         
Device 0: Tesla K20X, 14 CUs, 5.5/5.6 GB, 0.73 GHZ (Mixed Precision)
--------------------------------------------------------------------------

Initializing Device and compiling on process 0...  9680 angles
  reading dihedrals ...
  4 = max # of 1-2 neighbors
  4 = max # of 1-3 neighbors
  6 = max # of special neighbors
7680 atoms in group water
21 atoms in group tracers
7659 atoms in group allbuttracers
6368 atoms in group bilayer
3 atoms in group t1
3 atoms in group t2
3 atoms in group t3
3 atoms in group t4
3 atoms in group t5
3 atoms in group t6
3 atoms in group t7
Finding SHAKE clusters ...
  0 = # of size 2 clusters
  0 = # of size 3 clusters
  0 = # of size 4 clusters
  2560 = # of frozen angles
PPPM initialization ...
  G vector (1/distance) = 0.180262
  grid = 18 18 24
  stencil order = 5
  estimated absolute RMS force accuracy = 0.0281904
  estimated relative force accuracy = 8.48944e-05
  using double precision FFTs
  3d grid and FFT values/proc = 2156 648
  5536 dihedrals
  reading impropers ...
  336 impropers
Done.
Initializing Device 0 on core 0...Done.
Initializing Device 0 on core 1...Finding 1-2 1-3 1-4 neighbors ...
 Special bond factors lj:   0          0          1         
 Special bond factors coul: 0          0          1         
Done.
Initializing Device 0 on core 2...
--------------------------------------------------------------------------
- Using acceleration for pppm:
-  with 16 proc(s) per device.
--------------------------------------------------------------------------
Device 0: Tesla K20X, 14 CUs, 5.5/5.6 GB, 0.73 GHZ (Mixed Precision)
--------------------------------------------------------------------------

Initializing Device and compiling on process 0...  4 = max # of 1-2 neighbors
  4 = max # of 1-3 neighbors
  6 = max # of special neighbors
7680 atoms in group water
21 atoms in group tracers
7659 atoms in group allbuttracers
6368 atoms in group bilayer
3 atoms in group t1
3 atoms in group t2
3 atoms in group t3
3 atoms in group t4
3 atoms in group t5
3 atoms in group t6
3 atoms in group t7
Finding SHAKE clusters ...
  0 = # of size 2 clusters
  0 = # of size 3 clusters
  0 = # of size 4 clusters
  2560 = # of frozen angles
PPPM initialization ...
  G vector (1/distance) = 0.180361
  grid = 18 18 24
  stencil order = 5
  estimated absolute RMS force accuracy = 0.0280706
  estimated relative force accuracy = 8.45338e-05
  using double precision FFTs
  3d grid and FFT values/proc = 2156 648
Done.
Initializing Device 0 on core 3...
--------------------------------------------------------------------------
- Using acceleration for pppm:
-  with 16 proc(s) per device.
--------------------------------------------------------------------------
Done.
Initializing Device 0 on core 0...Done.
Initializing Device 0 on core 1...Done.
Initializing Device 0 on core 4...  4 = max # of 1-2 neighbors
  4 = max # of 1-3 neighbors
Device 0: Tesla K20X, 14 CUs, 5.5/5.6 GB, 0.73 GHZ (Mixed Precision)
--------------------------------------------------------------------------

Initializing Device and compiling on process 0...  6 = max # of special neighbors
7680 atoms in group water
21 atoms in group tracers
7659 atoms in group allbuttracers
6368 atoms in group bilayer
3 atoms in group t1
3 atoms in group t2
3 atoms in group t3
3 atoms in group t4
3 atoms in group t5
3 atoms in group t6
3 atoms in group t7
Finding SHAKE clusters ...
Done.
Initializing Device 0 on core 2...  0 = # of size 2 clusters
  0 = # of size 3 clusters
  0 = # of size 4 clusters
  2560 = # of frozen angles
PPPM initialization ...
  G vector (1/distance) = 0.180304
  grid = 18 18 24
  stencil order = 5
  estimated absolute RMS force accuracy = 0.0281384
  estimated relative force accuracy = 8.47379e-05
  using double precision FFTs
  3d grid and FFT values/proc = 2156 648
Done.
Initializing Device 0 on core 5...Done.
Initializing Device 0 on core 3...Done.
Initializing Device 0 on core 0...Done.
Initializing Device 0 on core 1...
--------------------------------------------------------------------------
- Using acceleration for pppm:
-  with 16 proc(s) per device.
--------------------------------------------------------------------------
Done.
Initializing Device 0 on core 2...Device 0: Tesla K20X, 14 CUs, 5.5/5.6 GB, 0.73 GHZ (Mixed Precision)
--------------------------------------------------------------------------

Initializing Device and compiling on process 0...Done.
Initializing Device 0 on core 6...Done.
Initializing Device 0 on core 4...Done.
Initializing Device 0 on core 3...Done.
Initializing Device 0 on core 7...Done.
Initializing Device 0 on core 5...Done.
Initializing Device 0 on core 0...Done.
Initializing Device 0 on core 1...Done.
Initializing Device 0 on core 2...Done.
Initializing Device 0 on core 4...Done.
Initializing Device 0 on core 8...Done.
Initializing Device 0 on core 6...Done.
Initializing Device 0 on core 3...Done.
Initializing Device 0 on core 5...Done.
Initializing Device 0 on core 9...Done.
Initializing Device 0 on core 7...Done.
Initializing Device 0 on core 4...Done.
Initializing Device 0 on core 6...Done.
Initializing Device 0 on core 10...Done.
Initializing Device 0 on core 8...Done.
Initializing Device 0 on core 5...Done.
Initializing Device 0 on core 7...Done.
Initializing Device 0 on core 11...Done.
Initializing Device 0 on core 9...Done.
Initializing Device 0 on core 6...Done.
Initializing Device 0 on core 8...Done.
Initializing Device 0 on core 12...Done.
Initializing Device 0 on core 10...Done.
Initializing Device 0 on core 7...Done.
Initializing Device 0 on core 13...Done.
Initializing Device 0 on core 9...Done.
Initializing Device 0 on core 11...Done.
Initializing Device 0 on core 8...Done.
Initializing Device 0 on core 14...Done.
Initializing Device 0 on core 10...Done.
Initializing Device 0 on core 12...Done.
Initializing Device 0 on core 9...Done.
Initializing Device 0 on core 15...Done.
Initializing Device 0 on core 11...Done.
Initializing Device 0 on core 13...Done.
Initializing Device 0 on core 10...Done.


--------------------------------------------------------------------------
- Using acceleration for lj/cut/coul/long:
-  with 16 proc(s) per device.
--------------------------------------------------------------------------
Device 0: Tesla K20X, 14 CUs, 5.4/5.6 GB, 0.73 GHZ (Mixed Precision)
--------------------------------------------------------------------------

Initializing Device and compiling on process 0...Done.
Initializing Device 0 on core 12...Done.
Initializing Device 0 on core 14...Done.
Initializing Device 0 on core 0...Done.
Initializing Device 0 on core 11...Done.
Initializing Device 0 on core 13...Done.
Initializing Device 0 on core 15...Done.
Initializing Device 0 on core 1...Done.
Initializing Device 0 on core 2...Done.
Initializing Device 0 on core 3...Done.
Initializing Device 0 on core 12...Done.
Initializing Device 0 on core 4...Done.
Initializing Device 0 on core 14...Done.
Initializing Device 0 on core 5...Done.
Initializing Device 0 on core 6...Done.
Initializing Device 0 on core 13...Done.

Done.
Initializing Device 0 on core 15...
--------------------------------------------------------------------------
- Using acceleration for lj/cut/coul/long:
-  with 16 proc(s) per device.
--------------------------------------------------------------------------
Device 0: Tesla K20X, 14 CUs, 5.4/5.6 GB, 0.73 GHZ (Mixed Precision)
--------------------------------------------------------------------------

Initializing Device and compiling on process 0...Done.
Initializing Device 0 on core 7...Done.
Initializing Device 0 on core 8...Done.
Initializing Device 0 on core 9...Done.
Initializing Device 0 on core 14...Done.
Initializing Device 0 on core 0...Done.

Done.
Initializing Device 0 on core 10...Done.
Initializing Device 0 on core 11...Done.
Initializing Device 0 on core 12...Done.
Initializing Device 0 on core 13...
--------------------------------------------------------------------------
- Using acceleration for lj/cut/coul/long:
-  with 16 proc(s) per device.
--------------------------------------------------------------------------
Device 0: Tesla K20X, 14 CUs, 5.4/5.6 GB, 0.73 GHZ (Mixed Precision)
--------------------------------------------------------------------------

Initializing Device and compiling on process 0...Done.
Initializing Device 0 on core 15...Done.
Initializing Device 0 on core 0...Done.
Initializing Device 0 on core 1...Done.
Initializing Device 0 on core 2...Done.
Initializing Device 0 on core 3...Done.
Initializing Device 0 on core 4...Done.
Initializing Device 0 on core 5...Done.
Initializing Device 0 on core 14...Done.
Initializing Device 0 on core 15...Done.

Done.
Initializing Device 0 on core 6...Done.

Done.
Initializing Device 0 on core 1...Done.
Initializing Device 0 on core 2...Done.
Initializing Device 0 on core 3...Done.
Initializing Device 0 on core 7...WARNING: Fix recenter should come after all other integration fixes (../fix_recenter.cpp:132)
WARNING: Fix recenter should come after all other integration fixes (../fix_recenter.cpp:132)

--------------------------------------------------------------------------
- Using acceleration for lj/cut/coul/long:
-  with 16 proc(s) per device.
--------------------------------------------------------------------------
Device 0: Tesla K20X, 14 CUs, 5.4/5.6 GB, 0.73 GHZ (Mixed Precision)
--------------------------------------------------------------------------

Initializing Device and compiling on process 0...Done.
Initializing Device 0 on core 4...Done.
Initializing Device 0 on core 8...WARNING: Fix recenter should come after all other integration fixes (../fix_recenter.cpp:132)
WARNING: Fix recenter should come after all other integration fixes (../fix_recenter.cpp:132)
WARNING: Fix recenter should come after all other integration fixes (../fix_recenter.cpp:132)
WARNING: Fix recenter should come after all other integration fixes (../fix_recenter.cpp:132)
Neighbor list info ...
  0 neighbor list requests
  update every 1 steps, delay 10 steps, check yes
  max neighbors/atom: 2000, page size: 100000
  master list distance cutoff = 16
  ghost atom cutoff = 16
  binsize = 8, bins = 7 8 10
Done.
Initializing Device 0 on core 0...Setting up Verlet run ...
  Unit style  : real
  Current step: 0
  Time step   : 1
Done.
Initializing Device 0 on core 5...Done.
Initializing Device 0 on core 6...Done.
Initializing Device 0 on core 7...Done.
Initializing Device 0 on core 9...Done.
Initializing Device 0 on core 10...Done.
Initializing Device 0 on core 11...Done.
Initializing Device 0 on core 8...Done.
Initializing Device 0 on core 1...Done.
Initializing Device 0 on core 2...Done.
Initializing Device 0 on core 3...Done.
Initializing Device 0 on core 12...Done.
Initializing Device 0 on core 4...Done.
Initializing Device 0 on core 9...Done.
Initializing Device 0 on core 10...Done.
Initializing Device 0 on core 11...Done.
Initializing Device 0 on core 12...Done.
Initializing Device 0 on core 13...Done.
Initializing Device 0 on core 14...Done.
Initializing Device 0 on core 15...Done.
Initializing Device 0 on core 5...Done.
Initializing Device 0 on core 6...Done.
Initializing Device 0 on core 7...Done.
Initializing Device 0 on core 13...Done.

Done.
Initializing Device 0 on core 8...Done.
Initializing Device 0 on core 14...Done.
Initializing Device 0 on core 15...WARNING: Fix recenter should come after all other integration fixes (../fix_recenter.cpp:132)
WARNING: Fix recenter should come after all other integration fixes (../fix_recenter.cpp:132)
WARNING: Fix recenter should come after all other integration fixes (../fix_recenter.cpp:132)
WARNING: Fix recenter should come after all other integration fixes (../fix_recenter.cpp:132)
WARNING: Fix recenter should come after all other integration fixes (../fix_recenter.cpp:132)
WARNING: Fix recenter should come after all other integration fixes (../fix_recenter.cpp:132)
Done.

Neighbor list info ...
  0 neighbor list requests
  update every 1 steps, delay 10 steps, check yes
  max neighbors/atom: 2000, page size: 100000
  master list distance cutoff = 16
  ghost atom cutoff = 16
  binsize = 8, bins = 7 8 10
Done.
Initializing Device 0 on core 9...Done.
Initializing Device 0 on core 10...Done.
Initializing Device 0 on core 11...Done.
Initializing Device 0 on core 12...Done.
Initializing Device 0 on core 13...Setting up Verlet run ...
  Unit style  : real
  Current step: 0
  Time step   : 1
Done.
Initializing Device 0 on core 14...Done.
Initializing Device 0 on core 15...WARNING: Fix recenter should come after all other integration fixes (../fix_recenter.cpp:132)
WARNING: Fix recenter should come after all other integration fixes (../fix_recenter.cpp:132)
Done.

WARNING: Fix recenter should come after all other integration fixes (../fix_recenter.cpp:132)
WARNING: Fix recenter should come after all other integration fixes (../fix_recenter.cpp:132)
WARNING: Fix recenter should come after all other integration fixes (../fix_recenter.cpp:132)
WARNING: Fix recenter should come after all other integration fixes (../fix_recenter.cpp:132)
Neighbor list info ...
  0 neighbor list requests
  update every 1 steps, delay 10 steps, check yes
  max neighbors/atom: 2000, page size: 100000
  master list distance cutoff = 16
  ghost atom cutoff = 16
  binsize = 8, bins = 7 8 10
Setting up Verlet run ...
  Unit style  : real
  Current step: 0
  Time step   : 1
WARNING: Fix recenter should come after all other integration fixes (../fix_recenter.cpp:132)
WARNING: Fix recenter should come after all other integration fixes (../fix_recenter.cpp:132)
WARNING: Fix recenter should come after all other integration fixes (../fix_recenter.cpp:132)
WARNING: Fix recenter should come after all other integration fixes (../fix_recenter.cpp:132)
WARNING: Fix recenter should come after all other integration fixes (../fix_recenter.cpp:132)
WARNING: Fix recenter should come after all other integration fixes (../fix_recenter.cpp:132)
Neighbor list info ...
  0 neighbor list requests
  update every 1 steps, delay 10 steps, check yes
  max neighbors/atom: 2000, page size: 100000
  master list distance cutoff = 16
  ghost atom cutoff = 16
  binsize = 8, bins = 7 8 10
Setting up Verlet run ...
  Unit style  : real
  Current step: 0
  Time step   : 1
SHAKE stats (type/ave/delta) on step 0
  53 1 8.80481e-06 15360
  55 109.5 0.000738742
Memory usage per processor = 11.8874 Mbytes
Step Temp E_pair E_mol TotEng Press Volume 
       0    303.05454   -62893.717    7523.6197   -44993.339   -76.270559    224329.81 
SHAKE stats (type/ave/delta) on step 0
  53 0.999995 1.83981e-05 15360
  55 109.5 0.0017559
Memory usage per processor = 11.8637 Mbytes
Step Temp E_pair E_mol TotEng Press Volume 
       0    304.87565   -62704.204    7349.2637   -44915.826     297.2862    225049.21 
SHAKE stats (type/ave/delta) on step 0
  53 1.00001 2.15194e-05 15360
  55 109.5 0.00164495
Memory usage per processor = 11.8816 Mbytes
Step Temp E_pair E_mol TotEng Press Volume 
SHAKE stats (type/ave/delta) on step 0
  53 1.00001 2.56697e-05 15360
  55 109.5 0.00208874
       0    306.10873   -62930.019    7584.7961   -44863.887   -122.37353    223812.83 
Memory usage per processor = 11.8597 Mbytes
Step Temp E_pair E_mol TotEng Press Volume 
       0    304.13287   -62986.049    7431.4124   -45140.956    335.54334    224521.33 
    1000    301.07212   -62912.413    7624.4036    -44979.13    280.48081    225133.39 
    1000    305.63858   -62949.872    7612.8824   -44871.752   -790.02268    225194.68 
    1000    300.71481   -62887.034    7619.3478   -44971.042    -519.9159    224205.22 
    1000     303.6797   -62846.642    7633.7651   -44814.712   -88.776151    224379.31 
    2000    303.07601   -62746.443     7646.681   -44722.269   -88.056108    226107.26 
    2000    299.89562   -62880.868    7464.1364   -45148.136   -360.68139    224621.39 
    2000    300.94441   -62872.224    7569.0891   -44998.628   -155.40859    224323.15 
    2000    301.59734   -62912.625    7622.2203   -44963.541   -36.101544    223945.39 
    3000    305.10832   -62833.809    7526.5181    -44860.21    12.497627    224465.39 
    3000    299.99385   -62823.288    7640.1439   -44911.185   -106.02021    224770.67 
    3000    302.84027   -62823.661    7636.5542   -44817.685     34.81072    224480.92 
    3000    304.14148   -62878.395    7452.1125   -45012.307   -183.95926    224490.35 
    4000     302.0299    -62724.27    7602.6199   -44779.976    327.45567    224839.05 
    4000     299.5579   -62809.617    7549.8268   -45002.759   -188.83046    223873.81 
    4000    302.20476   -62843.911    7623.5995    -44872.65   -83.819379    223892.18 
    4000    305.99222   -62996.852    7485.8594   -45033.646    326.55578    223813.42 
    5000    305.21756   -62766.678    7520.5213   -44795.336    95.541199    224174.59 
    5000    300.84724   -62783.772    7588.9768   -44893.616    119.13062    224803.11 
    5000     304.4782   -62829.485     7545.017   -44858.962    -26.95388    224221.55 
    5000    307.96467   -63014.693    7634.7487    -44835.06    56.614708    223964.58 
    6000    299.70079   -62847.523    7538.5248   -45047.074   -425.91938    224434.23 
    6000    303.88267   -62846.124    7472.6148   -44968.394   -103.07088    225508.58 
    6000    305.81411    -62941.36    7476.6249   -44993.487   -219.73816    224321.74 
    6000    302.50518    -62845.79    7563.8298   -44924.012    157.07051    224374.72 
    7000    308.62989   -62897.041    7603.6997    -44725.68   -399.84978    224744.21 
    7000    304.57844   -62950.948    7494.2916   -45027.718    70.404229    224070.97 
    7000    303.54657   -62818.524    7630.2205   -44794.697    137.81297    224756.82 
    7000    301.50267   -62929.497    7549.6605   -45056.215    166.95868    223812.07 
aprun: Apid 12502973: Caught signal Terminated, sending to application
aprun: Apid 12502974: Caught signal Terminated, sending to application
aprun: Apid 12502972: Caught signal Terminated, sending to application
aprun: Apid 12502971: Caught signal Terminated, sending to application
aprun: Apid 12502973: Caught signal Terminated, sending to application
aprun: Apid 12502974: Caught signal Terminated, sending to application
aprun: Apid 12502972: Caught signal Terminated, sending to application
aprun: Apid 12502971: Caught signal Terminated, sending to application
_pmiu_daemon(SIGCHLD): [NID 02348] [c6-1c0s6n2] [Thu Oct 27 15:28:03 2016] PE RANK 1 exit signal Terminated
aprun: Apid 12502973: Caught signal Terminated, sending to application
aprun: Apid 12502974: Caught signal Terminated, sending to application
aprun: Apid 12502972: Caught signal Terminated, sending to application
aprun: Apid 12502971: Caught signal Terminated, sending to application
_pmiu_daemon(SIGCHLD): [NID 02349] [c6-1c0s6n3] [Thu Oct 27 15:28:03 2016] PE RANK 5 exit signal Terminated
_pmiu_daemon(SIGCHLD): [NID 02258] [c4-1c0s6n2] [Thu Oct 27 15:28:03 2016] PE RANK 11 exit signal Terminated
_pmiu_daemon(SIGCHLD): [NID 02259] [c4-1c0s6n3] [Thu Oct 27 15:28:03 2016] PE RANK 3 exit signal Terminated
aprun: Apid 12502973: Caught signal Terminated, sending to application
aprun: Apid 12502974: Caught signal Terminated, sending to application
aprun: Apid 12502972: Caught signal Terminated, sending to application
aprun: Apid 12502971: Caught signal Terminated, sending to application
aprun: Apid 12502973: Caught signal Terminated, sending to application
aprun: Apid 12502974: Caught signal Terminated, sending to application
aprun: Apid 12502972: Caught signal Terminated, sending to application
aprun: Apid 12502971: Caught signal Terminated, sending to application
aprun: Apid 12502973: Caught signal Terminated, sending to application
aprun: Apid 12502974: Caught signal Terminated, sending to application
aprun: Apid 12502972: Caught signal Terminated, sending to application
aprun: Apid 12502971: Caught signal Terminated, sending to application
aprun: Apid 12502973: Caught signal Terminated, sending to application
aprun: Apid 12502974: Caught signal Terminated, sending to application
aprun: Apid 12502972: Caught signal Terminated, sending to application
aprun: Apid 12502971: Caught signal Terminated, sending to application
aprun: Apid 12502973: Caught signal Terminated, sending to application
aprun: Apid 12502974: Caught signal Terminated, sending to application
aprun: Apid 12502972: Caught signal Terminated, sending to application
aprun: Apid 12502971: Caught signal Terminated, sending to application
aprun: Apid 12502973: Caught signal Terminated, sending to application
aprun: Apid 12502974: Caught signal Terminated, sending to application
aprun: Apid 12502972: Caught signal Terminated, sending to application
aprun: Apid 12502971: Caught signal Terminated, sending to application
aprun: Apid 12502973: Caught signal Terminated, sending to application
aprun: Apid 12502974: Caught signal Terminated, sending to application
aprun: Apid 12502972: Caught signal Terminated, sending to application
aprun: Apid 12502971: Caught signal Terminated, sending to application
aprun: Apid 12502973: Caught signal Terminated, sending to application
aprun: Apid 12502974: Caught signal Terminated, sending to application
aprun: Apid 12502972: Caught signal Terminated, sending to application
aprun: Apid 12502971: Caught signal Terminated, sending to application
aprun: Apid 12502973: Caught signal Terminated, sending to application
aprun: Apid 12502974: Caught signal Terminated, sending to application
aprun: Apid 12502972: Caught signal Terminated, sending to application
aprun: Apid 12502971: Caught signal Terminated, sending to application
aprun: Apid 12502973: Caught signal Terminated, sending to application
aprun: Apid 12502974: Caught signal Terminated, sending to application
aprun: Apid 12502972: Caught signal Terminated, sending to application
aprun: Apid 12502971: Caught signal Terminated, sending to application
aprun: Apid 12502973: Caught signal Terminated, sending to application
aprun: Apid 12502974: Caught signal Terminated, sending to application
aprun: Apid 12502972: Caught signal Terminated, sending to application
aprun: Apid 12502971: Caught signal Terminated, sending to application
aprun: Apid 12502973: Caught signal Terminated, sending to application
aprun: Apid 12502974: Caught signal Terminated, sending to application
aprun: Apid 12502972: Caught signal Terminated, sending to application
aprun: Apid 12502971: Caught signal Terminated, sending to application
aprun: Apid 12502973: Caught signal Terminated, sending to application
aprun: Apid 12502974: Caught signal Terminated, sending to application
aprun: Apid 12502972: Caught signal Terminated, sending to application
aprun: Apid 12502971: Caught signal Terminated, sending to application
aprun: Apid 12502973: Caught signal Terminated, sending to application
aprun: Apid 12502974: Caught signal Terminated, sending to application
aprun: Apid 12502972: Caught signal Terminated, sending to application
aprun: Apid 12502971: Caught signal Terminated, sending to application
aprun: Apid 12502973: Caught signal Terminated, sending to application
aprun: Apid 12502974: Caught signal Terminated, sending to application
aprun: Apid 12502972: Caught signal Terminated, sending to application
aprun: Apid 12502971: Caught signal Terminated, sending to application
aprun: Apid 12502973: Caught signal Terminated, sending to application
aprun: Apid 12502974: Caught signal Terminated, sending to application
aprun: Apid 12502972: Caught signal Terminated, sending to application
aprun: Apid 12502971: Caught signal Terminated, sending to application
aprun: Apid 12502973: Caught signal Terminated, sending to application
aprun: Apid 12502974: Caught signal Terminated, sending to application
aprun: Apid 12502972: Caught signal Terminated, sending to application
aprun: Apid 12502971: Caught signal Terminated, sending to application
aprun: Apid 12502973: Caught signal Terminated, sending to application
aprun: Apid 12502974: Caught signal Terminated, sending to application
aprun: Apid 12502972: Caught signal Terminated, sending to application
aprun: Apid 12502971: Caught signal Terminated, sending to application
aprun: Apid 12502973: Caught signal Terminated, sending to application
aprun: Apid 12502974: Caught signal Terminated, sending to application
aprun: Apid 12502972: Caught signal Terminated, sending to application
aprun: Apid 12502971: Caught signal Terminated, sending to application
