LAMMPS (5 Oct 2015)
LAMMPS (5 Oct 2015)
LAMMPS (5 Oct 2015)
LAMMPS (5 Oct 2015)
LAMMPS (5 Oct 2015)
Reading restart file ...
ERROR on proc 0: Cannot open restart file restartfile (../read_restart.cpp:140)
Rank 0 [Thu Oct 27 15:22:52 2016] [c2-1c0s7n0] application called MPI_Abort(MPI_COMM_WORLD, 1) - process 0
_pmiu_daemon(SIGCHLD): [NID 00816] [c2-1c0s7n0] [Thu Oct 27 15:22:52 2016] PE RANK 0 exit signal Aborted
Reading restart file ...
Rank 0 [Thu Oct 27 15:22:52 2016] [c4-1c0s6n3] application called MPI_Abort(MPI_COMM_WORLD, 1) - process 0
ERROR on proc 0: Cannot open restart file restartfile (../read_restart.cpp:140)
_pmiu_daemon(SIGCHLD): [NID 02259] [c4-1c0s6n3] [Thu Oct 27 15:22:52 2016] PE RANK 0 exit signal Aborted
[NID 02259] 2016-10-27 15:22:52 Apid 12502933: initiated application termination
Reading restart file ...
ERROR on proc 0: Cannot open restart file restartfile (../read_restart.cpp:140)
Rank 0 [Thu Oct 27 15:22:52 2016] [c6-1c0s6n2] application called MPI_Abort(MPI_COMM_WORLD, 1) - process 0
Reading restart file ...
ERROR on proc 0: Cannot open restart file restartfile (../read_restart.cpp:140)
Rank 0 [Thu Oct 27 15:22:52 2016] [c4-1c0s6n2] application called MPI_Abort(MPI_COMM_WORLD, 1) - process 0
_pmiu_daemon(SIGCHLD): [NID 02348] [c6-1c0s6n2] [Thu Oct 27 15:22:52 2016] PE RANK 0 exit signal Aborted
[NID 02348] 2016-10-27 15:22:52 Apid 12502932: initiated application termination
Reading restart file ...
ERROR on proc 0: Cannot open restart file restartfile (../read_restart.cpp:140)
_pmiu_daemon(SIGCHLD): [NID 02258] [c4-1c0s6n2] [Thu Oct 27 15:22:52 2016] PE RANK 0 exit signal Aborted
[NID 02258] 2016-10-27 15:22:52 Apid 12502934: initiated application termination
[NID 00816] 2016-10-27 15:22:52 Apid 12502935: initiated application termination
Rank 0 [Thu Oct 27 15:22:52 2016] [c6-1c0s6n3] application called MPI_Abort(MPI_COMM_WORLD, 1) - process 0
_pmiu_daemon(SIGCHLD): [NID 02349] [c6-1c0s6n3] [Thu Oct 27 15:22:52 2016] PE RANK 0 exit signal Aborted
[NID 02349] 2016-10-27 15:22:52 Apid 12502931: initiated application termination
Application 12502935 exit codes: 134
Application 12502935 resources: utime ~1s, stime ~2s, Rss ~13296, inblocks ~8332, outblocks ~25299
Application 12502931 exit codes: 134
Application 12502931 resources: utime ~1s, stime ~2s, Rss ~13296, inblocks ~8330, outblocks ~25299
Application 12502933 exit codes: 134
Application 12502933 resources: utime ~1s, stime ~2s, Rss ~13296, inblocks ~8338, outblocks ~25299
Application 12502934 exit codes: 134
Application 12502934 resources: utime ~1s, stime ~2s, Rss ~13300, inblocks ~8339, outblocks ~25299
Application 12502932 exit codes: 134
Application 12502932 resources: utime ~1s, stime ~2s, Rss ~13300, inblocks ~8339, outblocks ~25299
