LAMMPS (5 Oct 2015)
LAMMPS (5 Oct 2015)
LAMMPS (5 Oct 2015)
LAMMPS (5 Oct 2015)
LAMMPS (5 Oct 2015)
Reading data file ...
  orthogonal box = (-25.8501 -28.3005 -38.2418) to (25.8501 28.3005 38.2418)
  2 by 2 by 4 MPI processor grid
  reading atoms ...
Reading data file ...
  orthogonal box = (-25.8501 -28.3005 -38.3301) to (25.8501 28.3005 38.3301)
  2 by 2 by 4 MPI processor grid
Reading data file ...
  reading atoms ...
  14048 atoms
  reading velocities ...
Reading data file ...
  orthogonal box = (-25.8501 -28.3005 -38.5584) to (25.8501 28.3005 38.5584)
  2 by 2 by 4 MPI processor grid
  14048 velocities
  scanning bonds ...
  orthogonal box = (-25.8501 -28.3005 -38.453) to (25.8501 28.3005 38.453)
  reading atoms ...
Reading data file ...
  2 by 2 by 4 MPI processor grid
  reading atoms ...
  3 = max bonds/atom
  scanning angles ...
  orthogonal box = (-25.8501 -28.3005 -38.3628) to (25.8501 28.3005 38.3628)
  2 by 2 by 4 MPI processor grid
  reading atoms ...
  6 = max angles/atom
  scanning dihedrals ...
  14048 atoms
  reading velocities ...
  2 = max dihedrals/atom
  scanning impropers ...
  14048 velocities
  scanning bonds ...
  2 = max impropers/atom
  reading bonds ...
  14048 atoms
  3 = max bonds/atom
  scanning angles ...
  11360 bonds
  reading angles ...
  14048 atoms
  reading velocities ...
  reading velocities ...
  6 = max angles/atom
  scanning dihedrals ...
  9680 angles
  reading dihedrals ...
  14048 velocities
  scanning bonds ...
  14048 atoms
  2 = max dihedrals/atom
  scanning impropers ...
  14048 velocities
  scanning bonds ...
  reading velocities ...
  5536 dihedrals
  reading impropers ...
  3 = max bonds/atom
  scanning angles ...
  336 impropers
  2 = max impropers/atom
Finding 1-2 1-3 1-4 neighbors ...
 Special bond factors lj:   0          0          1         
 Special bond factors coul: 0          0          1         
  3 = max bonds/atom
  scanning angles ...
  reading bonds ...
  14048 velocities
  scanning bonds ...
  6 = max angles/atom
  scanning dihedrals ...
  6 = max angles/atom
  scanning dihedrals ...
  11360 bonds
  reading angles ...
  3 = max bonds/atom
  2 = max dihedrals/atom
  scanning impropers ...
  scanning angles ...
  2 = max dihedrals/atom
  scanning impropers ...
  2 = max impropers/atom
  4 = max # of 1-2 neighbors
  4 = max # of 1-3 neighbors
  6 = max # of special neighbors
  9680 angles
  reading dihedrals ...
7680 atoms in group water
ERROR on proc 0: Substitution for illegal variable (../input.cpp:530)
ERROR on proc 5: Substitution for illegal variable (../input.cpp:530)
ERROR on proc 2: Substitution for illegal variable (../input.cpp:530)
ERROR on proc 11: Substitution for illegal variable (../input.cpp:530)
ERROR on proc 1: Substitution for illegal variable (../input.cpp:530)
ERROR on proc 4: Substitution for illegal variable (../input.cpp:530)
ERROR on proc 3: Substitution for illegal variable (../input.cpp:530)
ERROR on proc 7: Substitution for illegal variable (../input.cpp:530)
ERROR on proc 14: Substitution for illegal variable (../input.cpp:530)
ERROR on proc 12: Substitution for illegal variable (../input.cpp:530)
ERROR on proc 10: Substitution for illegal variable (../input.cpp:530)
ERROR on proc 13: Substitution for illegal variable (../input.cpp:530)
ERROR on proc 9: Substitution for illegal variable (../input.cpp:530)
ERROR on proc 6: Substitution for illegal variable (../input.cpp:530)
ERROR on proc 8: Substitution for illegal variable (../input.cpp:530)
ERROR on proc 15: Substitution for illegal variable (../input.cpp:530)
  6 = max angles/atom
  reading bonds ...
  2 = max impropers/atom
Rank 1 [Thu Oct 27 15:22:13 2016] [c2-1c0s5n1] application called MPI_Abort(MPI_COMM_WORLD, 1) - process 1
Rank 0 [Thu Oct 27 15:22:13 2016] [c2-1c0s5n1] application called MPI_Abort(MPI_COMM_WORLD, 1) - process 0
Rank 9 [Thu Oct 27 15:22:13 2016] [c2-1c0s5n1] application called MPI_Abort(MPI_COMM_WORLD, 1) - process 9
Rank 2 [Thu Oct 27 15:22:13 2016] [c2-1c0s5n1] application called MPI_Abort(MPI_COMM_WORLD, 1) - process 2
Rank 12 [Thu Oct 27 15:22:13 2016] [c2-1c0s5n1] application called MPI_Abort(MPI_COMM_WORLD, 1) - process 12
Rank 8 [Thu Oct 27 15:22:13 2016] [c2-1c0s5n1] application called MPI_Abort(MPI_COMM_WORLD, 1) - process 8
Rank 6 [Thu Oct 27 15:22:13 2016] [c2-1c0s5n1] application called MPI_Abort(MPI_COMM_WORLD, 1) - process 6
Rank 13 [Thu Oct 27 15:22:13 2016] [c2-1c0s5n1] application called MPI_Abort(MPI_COMM_WORLD, 1) - process 13
  5536 dihedrals
  reading impropers ...
  reading bonds ...
Rank 11 [Thu Oct 27 15:22:13 2016] [c2-1c0s5n1] application called MPI_Abort(MPI_COMM_WORLD, 1) - process 11
Rank 14 [Thu Oct 27 15:22:13 2016] [c2-1c0s5n1] application called MPI_Abort(MPI_COMM_WORLD, 1) - process 14
Rank 15 [Thu Oct 27 15:22:13 2016] [c2-1c0s5n1] application called MPI_Abort(MPI_COMM_WORLD, 1) - process 15
Rank 10 [Thu Oct 27 15:22:13 2016] [c2-1c0s5n1] application called MPI_Abort(MPI_COMM_WORLD, 1) - process 10
Rank 7 [Thu Oct 27 15:22:13 2016] [c2-1c0s5n1] application called MPI_Abort(MPI_COMM_WORLD, 1) - process 7
Rank 4 [Thu Oct 27 15:22:13 2016] [c2-1c0s5n1] application called MPI_Abort(MPI_COMM_WORLD, 1) - process 4
Rank 5 [Thu Oct 27 15:22:13 2016] [c2-1c0s5n1] application called MPI_Abort(MPI_COMM_WORLD, 1) - process 5
Rank 3 [Thu Oct 27 15:22:13 2016] [c2-1c0s5n1] application called MPI_Abort(MPI_COMM_WORLD, 1) - process 3
_pmiu_daemon(SIGCHLD): [NID 00821] [c2-1c0s5n1] [Thu Oct 27 15:22:13 2016] PE RANK 2 exit signal Aborted
[NID 00821] 2016-10-27 15:22:13 Apid 12502923: initiated application termination
  336 impropers
  scanning dihedrals ...
Finding 1-2 1-3 1-4 neighbors ...
 Special bond factors lj:   0          0          1         
 Special bond factors coul: 0          0          1         
  2 = max dihedrals/atom
  11360 bonds
  scanning impropers ...
  11360 bonds
  reading angles ...
  2 = max impropers/atom
  reading angles ...
  9680 angles
  9680 angles
  reading dihedrals ...
  reading bonds ...
  reading dihedrals ...
  4 = max # of 1-2 neighbors
  4 = max # of 1-3 neighbors
  6 = max # of special neighbors
7680 atoms in group water
ERROR on proc 1: Substitution for illegal variable (../input.cpp:530)
ERROR on proc 7: Substitution for illegal variable (../input.cpp:530)
ERROR on proc 2: Substitution for illegal variable (../input.cpp:530)
ERROR on proc 3: Substitution for illegal variable (../input.cpp:530)
ERROR on proc 14: Substitution for illegal variable (../input.cpp:530)
ERROR on proc 6: Substitution for illegal variable (../input.cpp:530)
ERROR on proc 4: Substitution for illegal variable (../input.cpp:530)
ERROR on proc 5: Substitution for illegal variable (../input.cpp:530)
ERROR on proc 9: Substitution for illegal variable (../input.cpp:530)
ERROR on proc 8: Substitution for illegal variable (../input.cpp:530)
ERROR on proc 11: Substitution for illegal variable (../input.cpp:530)
ERROR on proc 13: Substitution for illegal variable (../input.cpp:530)
ERROR on proc 12: Substitution for illegal variable (../input.cpp:530)
ERROR on proc 10: Substitution for illegal variable (../input.cpp:530)
ERROR on proc 0: Substitution for illegal variable (../input.cpp:530)
ERROR on proc 15: Substitution for illegal variable (../input.cpp:530)
Rank 7 [Thu Oct 27 15:22:13 2016] [c4-1c0s6n2] application called MPI_Abort(MPI_COMM_WORLD, 1) - process 7
Rank 3 [Thu Oct 27 15:22:13 2016] [c4-1c0s6n2] application called MPI_Abort(MPI_COMM_WORLD, 1) - process 3
Rank 8 [Thu Oct 27 15:22:13 2016] [c4-1c0s6n2] application called MPI_Abort(MPI_COMM_WORLD, 1) - process 8
Rank 5 [Thu Oct 27 15:22:13 2016] [c4-1c0s6n2] application called MPI_Abort(MPI_COMM_WORLD, 1) - process 5
Rank 0 [Thu Oct 27 15:22:13 2016] [c4-1c0s6n2] application called MPI_Abort(MPI_COMM_WORLD, 1) - process 0
Rank 11 [Thu Oct 27 15:22:13 2016] [c4-1c0s6n2] application called MPI_Abort(MPI_COMM_WORLD, 1) - process 11
Rank 10 [Thu Oct 27 15:22:13 2016] [c4-1c0s6n2] application called MPI_Abort(MPI_COMM_WORLD, 1) - process 10
Rank 6 [Thu Oct 27 15:22:13 2016] [c4-1c0s6n2] application called MPI_Abort(MPI_COMM_WORLD, 1) - process 6
Rank 2 [Thu Oct 27 15:22:13 2016] [c4-1c0s6n2] application called MPI_Abort(MPI_COMM_WORLD, 1) - process 2
Rank 14 [Thu Oct 27 15:22:13 2016] [c4-1c0s6n2] application called MPI_Abort(MPI_COMM_WORLD, 1) - process 14
Rank 9 [Thu Oct 27 15:22:13 2016] [c4-1c0s6n2] application called MPI_Abort(MPI_COMM_WORLD, 1) - process 9
Rank 1 [Thu Oct 27 15:22:13 2016] [c4-1c0s6n2] application called MPI_Abort(MPI_COMM_WORLD, 1) - process 1
Rank 12 [Thu Oct 27 15:22:13 2016] [c4-1c0s6n2] application called MPI_Abort(MPI_COMM_WORLD, 1) - process 12
Rank 13 [Thu Oct 27 15:22:13 2016] [c4-1c0s6n2] application called MPI_Abort(MPI_COMM_WORLD, 1) - process 13
Rank 15 [Thu Oct 27 15:22:13 2016] [c4-1c0s6n2] application called MPI_Abort(MPI_COMM_WORLD, 1) - process 15
Rank 4 [Thu Oct 27 15:22:13 2016] [c4-1c0s6n2] application called MPI_Abort(MPI_COMM_WORLD, 1) - process 4
  5536 dihedrals
  reading impropers ...
_pmiu_daemon(SIGCHLD): [NID 02258] [c4-1c0s6n2] [Thu Oct 27 15:22:13 2016] PE RANK 3 exit signal Aborted
[NID 02258] 2016-10-27 15:22:13 Apid 12502920: initiated application termination
  5536 dihedrals
  reading impropers ...
  336 impropers
Finding 1-2 1-3 1-4 neighbors ...
 Special bond factors lj:   0          0          1         
 Special bond factors coul: 0          0          1         
  11360 bonds
  336 impropers
  4 = max # of 1-2 neighbors
Finding 1-2 1-3 1-4 neighbors ...
 Special bond factors lj:   0          0          1         
 Special bond factors coul: 0          0          1         
  reading angles ...
  4 = max # of 1-3 neighbors
  6 = max # of special neighbors
  9680 angles
7680 atoms in group water
ERROR on proc 5: Substitution for illegal variable (../input.cpp:530)
ERROR on proc 2: Substitution for illegal variable (../input.cpp:530)
ERROR on proc 13: Substitution for illegal variable (../input.cpp:530)
ERROR on proc 3: Substitution for illegal variable (../input.cpp:530)
ERROR on proc 1: Substitution for illegal variable (../input.cpp:530)
ERROR on proc 4: Substitution for illegal variable (../input.cpp:530)
ERROR on proc 10: Substitution for illegal variable (../input.cpp:530)
ERROR on proc 14: Substitution for illegal variable (../input.cpp:530)
ERROR on proc 11: Substitution for illegal variable (../input.cpp:530)
ERROR on proc 9: Substitution for illegal variable (../input.cpp:530)
ERROR on proc 0: Substitution for illegal variable (../input.cpp:530)
ERROR on proc 8: Substitution for illegal variable (../input.cpp:530)
ERROR on proc 6: Substitution for illegal variable (../input.cpp:530)
ERROR on proc 7: Substitution for illegal variable (../input.cpp:530)
ERROR on proc 12: Substitution for illegal variable (../input.cpp:530)
ERROR on proc 15: Substitution for illegal variable (../input.cpp:530)
Rank 3 [Thu Oct 27 15:22:13 2016] [c4-1c0s6n3] application called MPI_Abort(MPI_COMM_WORLD, 1) - process 3
  reading dihedrals ...
Rank 2 [Thu Oct 27 15:22:13 2016] [c4-1c0s6n3] application called MPI_Abort(MPI_COMM_WORLD, 1) - process 2
Rank 12 [Thu Oct 27 15:22:13 2016] [c4-1c0s6n3] application called MPI_Abort(MPI_COMM_WORLD, 1) - process 12
Rank 4 [Thu Oct 27 15:22:13 2016] [c4-1c0s6n3] application called MPI_Abort(MPI_COMM_WORLD, 1) - process 4
Rank 14 [Thu Oct 27 15:22:13 2016] [c4-1c0s6n3] application called MPI_Abort(MPI_COMM_WORLD, 1) - process 14
Rank 9 [Thu Oct 27 15:22:13 2016] [c4-1c0s6n3] application called MPI_Abort(MPI_COMM_WORLD, 1) - process 9
Rank 10 [Thu Oct 27 15:22:13 2016] [c4-1c0s6n3] application called MPI_Abort(MPI_COMM_WORLD, 1) - process 10
Rank 11 [Thu Oct 27 15:22:13 2016] [c4-1c0s6n3] application called MPI_Abort(MPI_COMM_WORLD, 1) - process 11
  5536 dihedrals
  reading impropers ...
  4 = max # of 1-2 neighbors
  4 = max # of 1-3 neighbors
  6 = max # of special neighbors
7680 atoms in group water
ERROR on proc 1: Substitution for illegal variable (../input.cpp:530)
ERROR on proc 8: Substitution for illegal variable (../input.cpp:530)
ERROR on proc 11: Substitution for illegal variable (../input.cpp:530)
ERROR on proc 13: Substitution for illegal variable (../input.cpp:530)
ERROR on proc 10: Substitution for illegal variable (../input.cpp:530)
ERROR on proc 9: Substitution for illegal variable (../input.cpp:530)
ERROR on proc 0: Substitution for illegal variable (../input.cpp:530)
ERROR on proc 6: Substitution for illegal variable (../input.cpp:530)
ERROR on proc 7: Substitution for illegal variable (../input.cpp:530)
ERROR on proc 14: Substitution for illegal variable (../input.cpp:530)
ERROR on proc 3: Substitution for illegal variable (../input.cpp:530)
ERROR on proc 2: Substitution for illegal variable (../input.cpp:530)
ERROR on proc 12: Substitution for illegal variable (../input.cpp:530)
ERROR on proc 5: Substitution for illegal variable (../input.cpp:530)
ERROR on proc 4: Substitution for illegal variable (../input.cpp:530)
ERROR on proc 15: Substitution for illegal variable (../input.cpp:530)
Rank 0 [Thu Oct 27 15:22:13 2016] [c2-1c0s5n3] application called MPI_Abort(MPI_COMM_WORLD, 1) - process 0
Rank 10 [Thu Oct 27 15:22:13 2016] [c2-1c0s5n3] application called MPI_Abort(MPI_COMM_WORLD, 1) - process 10
Rank 1 [Thu Oct 27 15:22:13 2016] [c2-1c0s5n3] application called MPI_Abort(MPI_COMM_WORLD, 1) - process 1
Rank 11 [Thu Oct 27 15:22:13 2016] [c2-1c0s5n3] application called MPI_Abort(MPI_COMM_WORLD, 1) - process 11
Rank 9 [Thu Oct 27 15:22:13 2016] [c2-1c0s5n3] application called MPI_Abort(MPI_COMM_WORLD, 1) - process 9
Rank 13 [Thu Oct 27 15:22:13 2016] [c2-1c0s5n3] application called MPI_Abort(MPI_COMM_WORLD, 1) - process 13
Rank 12 [Thu Oct 27 15:22:13 2016] [c2-1c0s5n3] application called MPI_Abort(MPI_COMM_WORLD, 1) - process 12
Rank 14 [Thu Oct 27 15:22:13 2016] [c2-1c0s5n3] application called MPI_Abort(MPI_COMM_WORLD, 1) - process 14
Rank 7 [Thu Oct 27 15:22:13 2016] [c2-1c0s5n3] application called MPI_Abort(MPI_COMM_WORLD, 1) - process 7
Rank 3 [Thu Oct 27 15:22:13 2016] [c2-1c0s5n3] application called MPI_Abort(MPI_COMM_WORLD, 1) - process 3
Rank 4 [Thu Oct 27 15:22:13 2016] [c2-1c0s5n3] application called MPI_Abort(MPI_COMM_WORLD, 1) - process 4
Rank 6 [Thu Oct 27 15:22:13 2016] [c2-1c0s5n3] application called MPI_Abort(MPI_COMM_WORLD, 1) - process 6
Rank 5 [Thu Oct 27 15:22:13 2016] [c2-1c0s5n3] application called MPI_Abort(MPI_COMM_WORLD, 1) - process 5
Rank 2 [Thu Oct 27 15:22:13 2016] [c2-1c0s5n3] application called MPI_Abort(MPI_COMM_WORLD, 1) - process 2
Rank 15 [Thu Oct 27 15:22:13 2016] [c2-1c0s5n3] application called MPI_Abort(MPI_COMM_WORLD, 1) - process 15
Rank 1 [Thu Oct 27 15:22:13 2016] [c4-1c0s6n3] application called MPI_Abort(MPI_COMM_WORLD, 1) - process 1
Rank 5 [Thu Oct 27 15:22:13 2016] [c4-1c0s6n3] application called MPI_Abort(MPI_COMM_WORLD, 1) - process 5
Rank 13 [Thu Oct 27 15:22:13 2016] [c4-1c0s6n3] application called MPI_Abort(MPI_COMM_WORLD, 1) - process 13
Rank 8 [Thu Oct 27 15:22:13 2016] [c4-1c0s6n3] application called MPI_Abort(MPI_COMM_WORLD, 1) - process 8
Rank 6 [Thu Oct 27 15:22:13 2016] [c4-1c0s6n3] application called MPI_Abort(MPI_COMM_WORLD, 1) - process 6
Rank 7 [Thu Oct 27 15:22:13 2016] [c4-1c0s6n3] application called MPI_Abort(MPI_COMM_WORLD, 1) - process 7
Rank 15 [Thu Oct 27 15:22:13 2016] [c4-1c0s6n3] application called MPI_Abort(MPI_COMM_WORLD, 1) - process 15
_pmiu_daemon(SIGCHLD): [NID 02259] [c4-1c0s6n3] [Thu Oct 27 15:22:13 2016] PE RANK 3 exit signal Aborted
Rank 0 [Thu Oct 27 15:22:13 2016] [c4-1c0s6n3] application called MPI_Abort(MPI_COMM_WORLD, 1) - process 0
[NID 02259] 2016-10-27 15:22:13 Apid 12502919: initiated application termination
  336 impropers
Rank 8 [Thu Oct 27 15:22:13 2016] [c2-1c0s5n3] application called MPI_Abort(MPI_COMM_WORLD, 1) - process 8
_pmiu_daemon(SIGCHLD): [NID 00811] [c2-1c0s5n3] [Thu Oct 27 15:22:13 2016] PE RANK 9 exit signal Aborted
[NID 00811] 2016-10-27 15:22:13 Apid 12502922: initiated application termination
Finding 1-2 1-3 1-4 neighbors ...
 Special bond factors lj:   0          0          1         
 Special bond factors coul: 0          0          1         
  4 = max # of 1-2 neighbors
  4 = max # of 1-3 neighbors
  6 = max # of special neighbors
7680 atoms in group water
Rank 0 [Thu Oct 27 15:22:13 2016] [c2-1c0s7n0] application called MPI_Abort(MPI_COMM_WORLD, 1) - process 0
Rank 1 [Thu Oct 27 15:22:13 2016] [c2-1c0s7n0] application called MPI_Abort(MPI_COMM_WORLD, 1) - process 1
Rank 2 [Thu Oct 27 15:22:13 2016] [c2-1c0s7n0] application called MPI_Abort(MPI_COMM_WORLD, 1) - process 2
Rank 13 [Thu Oct 27 15:22:13 2016] [c2-1c0s7n0] application called MPI_Abort(MPI_COMM_WORLD, 1) - process 13
Rank 4 [Thu Oct 27 15:22:13 2016] [c2-1c0s7n0] application called MPI_Abort(MPI_COMM_WORLD, 1) - process 4
Rank 6 [Thu Oct 27 15:22:13 2016] [c2-1c0s7n0] application called MPI_Abort(MPI_COMM_WORLD, 1) - process 6
Rank 3 [Thu Oct 27 15:22:13 2016] [c2-1c0s7n0] application called MPI_Abort(MPI_COMM_WORLD, 1) - process 3
Rank 11 [Thu Oct 27 15:22:13 2016] [c2-1c0s7n0] application called MPI_Abort(MPI_COMM_WORLD, 1) - process 11
Rank 15 [Thu Oct 27 15:22:13 2016] [c2-1c0s7n0] application called MPI_Abort(MPI_COMM_WORLD, 1) - process 15
Rank 7 [Thu Oct 27 15:22:13 2016] [c2-1c0s7n0] application called MPI_Abort(MPI_COMM_WORLD, 1) - process 7
Rank 5 [Thu Oct 27 15:22:13 2016] [c2-1c0s7n0] application called MPI_Abort(MPI_COMM_WORLD, 1) - process 5
Rank 14 [Thu Oct 27 15:22:13 2016] [c2-1c0s7n0] application called MPI_Abort(MPI_COMM_WORLD, 1) - process 14
Rank 9 [Thu Oct 27 15:22:13 2016] [c2-1c0s7n0] application called MPI_Abort(MPI_COMM_WORLD, 1) - process 9
Rank 12 [Thu Oct 27 15:22:13 2016] [c2-1c0s7n0] application called MPI_Abort(MPI_COMM_WORLD, 1) - process 12
Rank 10 [Thu Oct 27 15:22:13 2016] [c2-1c0s7n0] application called MPI_Abort(MPI_COMM_WORLD, 1) - process 10
Rank 8 [Thu Oct 27 15:22:13 2016] [c2-1c0s7n0] application called MPI_Abort(MPI_COMM_WORLD, 1) - process 8
ERROR on proc 0: Substitution for illegal variable (../input.cpp:530)
ERROR on proc 1: Substitution for illegal variable (../input.cpp:530)
ERROR on proc 11: Substitution for illegal variable (../input.cpp:530)
ERROR on proc 13: Substitution for illegal variable (../input.cpp:530)
ERROR on proc 3: Substitution for illegal variable (../input.cpp:530)
ERROR on proc 2: Substitution for illegal variable (../input.cpp:530)
ERROR on proc 6: Substitution for illegal variable (../input.cpp:530)
ERROR on proc 4: Substitution for illegal variable (../input.cpp:530)
ERROR on proc 15: Substitution for illegal variable (../input.cpp:530)
ERROR on proc 5: Substitution for illegal variable (../input.cpp:530)
ERROR on proc 7: Substitution for illegal variable (../input.cpp:530)
ERROR on proc 8: Substitution for illegal variable (../input.cpp:530)
ERROR on proc 9: Substitution for illegal variable (../input.cpp:530)
ERROR on proc 10: Substitution for illegal variable (../input.cpp:530)
ERROR on proc 14: Substitution for illegal variable (../input.cpp:530)
ERROR on proc 12: Substitution for illegal variable (../input.cpp:530)
_pmiu_daemon(SIGCHLD): [NID 00816] [c2-1c0s7n0] [Thu Oct 27 15:22:13 2016] PE RANK 4 exit signal Aborted
[NID 00816] 2016-10-27 15:22:14 Apid 12502921: initiated application termination
Application 12502921 exit codes: 134
Application 12502921 resources: utime ~1s, stime ~2s, Rss ~17840, inblocks ~8323, outblocks ~25296
Application 12502920 exit codes: 134
Application 12502920 resources: utime ~1s, stime ~2s, Rss ~17872, inblocks ~8330, outblocks ~25296
Application 12502923 exit codes: 134
Application 12502923 resources: utime ~1s, stime ~2s, Rss ~14388, inblocks ~8328, outblocks ~25297
Application 12502919 exit codes: 134
Application 12502919 resources: utime ~1s, stime ~2s, Rss ~17876, inblocks ~8329, outblocks ~25296
Application 12502922 exit codes: 134
Application 12502922 resources: utime ~1s, stime ~2s, Rss ~14232, inblocks ~8321, outblocks ~25295
