LAMMPS (5 Oct 2015)
LAMMPS (5 Oct 2015)
LAMMPS (5 Oct 2015)
LAMMPS (5 Oct 2015)
LAMMPS (5 Oct 2015)
Reading restart file ...
  restart file = 5 Oct 2015, LAMMPS = 5 Oct 2015
  orthogonal box = (-26.1431 -28.0106 -38.1925) to (26.1431 28.0106 38.1925)
  2 by 2 by 4 MPI processor grid
Reading restart file ...
  restart file = 5 Oct 2015, LAMMPS = 5 Oct 2015
  orthogonal box = (-25.8567 -28.1698 -38.4868) to (25.8567 28.1698 38.4868)
  2 by 2 by 4 MPI processor grid
  14048 atoms
  11360 bonds
  9680 angles
  5536 dihedrals
  336 impropers
Finding 1-2 1-3 1-4 neighbors ...
 Special bond factors lj:   0          0          1         
 Special bond factors coul: 0          0          1         
  4 = max # of 1-2 neighbors
  4 = max # of 1-3 neighbors
Reading restart file ...
  14048 atoms
  11360 bonds
  9680 angles
  5536 dihedrals
  336 impropers
  6 = max # of special neighbors
Finding 1-2 1-3 1-4 neighbors ...
 Special bond factors lj:   0          0          1         
 Special bond factors coul: 0          0          1         
  restart file = 5 Oct 2015, LAMMPS = 5 Oct 2015
  4 = max # of 1-2 neighbors
  orthogonal box = (-25.5639 -28.06 -38.8946) to (25.5639 28.06 38.8946)
  4 = max # of 1-3 neighbors
  2 by 2 by 4 MPI processor grid
  6 = max # of special neighbors
7680 atoms in group water
21 atoms in group tracers
7659 atoms in group allbuttracers
6368 atoms in group bilayer
3 atoms in group t1
3 atoms in group t2
3 atoms in group t3
3 atoms in group t4
3 atoms in group t5
3 atoms in group t6
3 atoms in group t7
7680 atoms in group water
21 atoms in group tracers
7659 atoms in group allbuttracers
6368 atoms in group bilayer
3 atoms in group t1
3 atoms in group t2
3 atoms in group t3
3 atoms in group t4
3 atoms in group t5
3 atoms in group t6
3 atoms in group t7
Finding SHAKE clusters ...
Reading restart file ...
Finding SHAKE clusters ...
  0 = # of size 2 clusters
  0 = # of size 3 clusters
  0 = # of size 4 clusters
  2560 = # of frozen angles
  0 = # of size 2 clusters
  0 = # of size 3 clusters
  0 = # of size 4 clusters
  2560 = # of frozen angles
Resetting global state of Fix 4 Style npt from restart file info
Resetting global state of Fix 4 Style npt from restart file info
  restart file = 5 Oct 2015, LAMMPS = 5 Oct 2015
Resetting global state of Fix 12 Style nvt from restart file info
  orthogonal box = (-26.1069 -28.2335 -38.2236) to (26.1069 28.2335 38.2236)
Resetting global state of Fix 12 Style nvt from restart file info
  14048 atoms
  11360 bonds
  9680 angles
  5536 dihedrals
  336 impropers
  2 by 2 by 4 MPI processor grid
PPPM initialization ...
Finding 1-2 1-3 1-4 neighbors ...
 Special bond factors lj:   0          0          1         
 Special bond factors coul: 0          0          1         
  G vector (1/distance) = 0.180529
  grid = 18 18 24
  stencil order = 5
  estimated absolute RMS force accuracy = 0.0277433
  estimated relative force accuracy = 8.35481e-05
  using double precision FFTs
  3d grid and FFT values/proc = 2156 648
Reading restart file ...
  4 = max # of 1-2 neighbors
PPPM initialization ...
  G vector (1/distance) = 0.180383
  grid = 18 18 24
  stencil order = 5
  estimated absolute RMS force accuracy = 0.0279992
  estimated relative force accuracy = 8.43186e-05
  using double precision FFTs
  3d grid and FFT values/proc = 2156 648
  4 = max # of 1-3 neighbors
  restart file = 5 Oct 2015, LAMMPS = 5 Oct 2015
  orthogonal box = (-26.2061 -28.1493 -38.0692) to (26.2061 28.1493 38.0692)
  6 = max # of special neighbors
7680 atoms in group water
21 atoms in group tracers
7659 atoms in group allbuttracers
6368 atoms in group bilayer
3 atoms in group t1
3 atoms in group t2
3 atoms in group t3
3 atoms in group t4
3 atoms in group t5
3 atoms in group t6
3 atoms in group t7
  2 by 2 by 4 MPI processor grid
Finding SHAKE clusters ...

--------------------------------------------------------------------------
- Using acceleration for pppm:
-  with 16 proc(s) per device.
--------------------------------------------------------------------------
Device 0: Tesla K20X, 14 CUs, 5.5/5.6 GB, 0.73 GHZ (Mixed Precision)
--------------------------------------------------------------------------

Initializing Device and compiling on process 0...
--------------------------------------------------------------------------
- Using acceleration for pppm:
-  with 16 proc(s) per device.
--------------------------------------------------------------------------
  0 = # of size 2 clusters
  0 = # of size 3 clusters
  0 = # of size 4 clusters
  2560 = # of frozen angles
  14048 atoms
  11360 bonds
  9680 angles
  5536 dihedrals
  336 impropers
Device 0: Tesla K20X, 14 CUs, 5.5/5.6 GB, 0.73 GHZ (Mixed Precision)
--------------------------------------------------------------------------

Initializing Device and compiling on process 0...Done.
Initializing Device 0 on core 0...Done.
Initializing Device 0 on core 1...Resetting global state of Fix 4 Style npt from restart file info
Finding 1-2 1-3 1-4 neighbors ...
 Special bond factors lj:   0          0          1         
 Special bond factors coul: 0          0          1         
Resetting global state of Fix 12 Style nvt from restart file info
Done.
Initializing Device 0 on core 0...Done.
Initializing Device 0 on core 1...  4 = max # of 1-2 neighbors
Done.
Initializing Device 0 on core 2...  4 = max # of 1-3 neighbors
PPPM initialization ...
  6 = max # of special neighbors
  G vector (1/distance) = 0.180443
  grid = 18 18 24
  stencil order = 5
  estimated absolute RMS force accuracy = 0.0279472
  estimated relative force accuracy = 8.41621e-05
  using double precision FFTs
  3d grid and FFT values/proc = 2156 648
  14048 atoms
  11360 bonds
  9680 angles
  5536 dihedrals
7680 atoms in group water
21 atoms in group tracers
7659 atoms in group allbuttracers
6368 atoms in group bilayer
3 atoms in group t1
3 atoms in group t2
3 atoms in group t3
3 atoms in group t4
3 atoms in group t5
3 atoms in group t6
3 atoms in group t7
Done.
Initializing Device 0 on core 3...  336 impropers
Finding SHAKE clusters ...
Finding 1-2 1-3 1-4 neighbors ...
 Special bond factors lj:   0          0          1         
 Special bond factors coul: 0          0          1         
Done.
Initializing Device 0 on core 2...Done.
Initializing Device 0 on core 3...
--------------------------------------------------------------------------
- Using acceleration for pppm:
-  with 16 proc(s) per device.
--------------------------------------------------------------------------
  0 = # of size 2 clusters
  0 = # of size 3 clusters
  0 = # of size 4 clusters
  2560 = # of frozen angles
Resetting global state of Fix 4 Style npt from restart file info
  4 = max # of 1-2 neighbors
Device 0: Tesla K20X, 14 CUs, 5.5/5.6 GB, 0.73 GHZ (Mixed Precision)
--------------------------------------------------------------------------

Initializing Device and compiling on process 0...Resetting global state of Fix 12 Style nvt from restart file info
Done.
Initializing Device 0 on core 4...  4 = max # of 1-3 neighbors
  6 = max # of special neighbors
PPPM initialization ...
  G vector (1/distance) = 0.1803
  grid = 18 18 24
  stencil order = 5
  estimated absolute RMS force accuracy = 0.0280933
  estimated relative force accuracy = 8.46023e-05
  using double precision FFTs
  3d grid and FFT values/proc = 2156 648
Done.
Initializing Device 0 on core 0...Done.
Initializing Device 0 on core 1...Done.
Initializing Device 0 on core 5...7680 atoms in group water
21 atoms in group tracers
7659 atoms in group allbuttracers
6368 atoms in group bilayer
3 atoms in group t1
3 atoms in group t2
3 atoms in group t3
3 atoms in group t4
3 atoms in group t5
3 atoms in group t6
3 atoms in group t7
Finding SHAKE clusters ...
Done.
Initializing Device 0 on core 2...Done.
Initializing Device 0 on core 4...Done.
Initializing Device 0 on core 5...Done.
Initializing Device 0 on core 6...  0 = # of size 2 clusters
  0 = # of size 3 clusters
  0 = # of size 4 clusters
  2560 = # of frozen angles

--------------------------------------------------------------------------
- Using acceleration for pppm:
-  with 16 proc(s) per device.
--------------------------------------------------------------------------
Done.
Initializing Device 0 on core 6...Device 0: Tesla K20X, 14 CUs, 5.5/5.6 GB, 0.73 GHZ (Mixed Precision)
--------------------------------------------------------------------------

Initializing Device and compiling on process 0...Resetting global state of Fix 4 Style npt from restart file info
Resetting global state of Fix 12 Style nvt from restart file info
Done.
Initializing Device 0 on core 3...Done.
Initializing Device 0 on core 7...PPPM initialization ...
  G vector (1/distance) = 0.180402
  grid = 18 18 24
  stencil order = 5
  estimated absolute RMS force accuracy = 0.0279361
  estimated relative force accuracy = 8.41287e-05
  using double precision FFTs
  3d grid and FFT values/proc = 2156 648
Done.
Initializing Device 0 on core 7...Done.
Initializing Device 0 on core 4...Done.
Initializing Device 0 on core 8...Done.
Initializing Device 0 on core 0...Done.
Initializing Device 0 on core 1...Done.
Initializing Device 0 on core 2...Done.
Initializing Device 0 on core 8...Done.
Initializing Device 0 on core 5...
--------------------------------------------------------------------------
- Using acceleration for pppm:
-  with 16 proc(s) per device.
--------------------------------------------------------------------------
Device 0: Tesla K20X, 14 CUs, 5.5/5.6 GB, 0.73 GHZ (Mixed Precision)
--------------------------------------------------------------------------

Initializing Device and compiling on process 0...Done.
Initializing Device 0 on core 9...Done.
Initializing Device 0 on core 3...Done.
Initializing Device 0 on core 9...Done.
Initializing Device 0 on core 6...Done.
Initializing Device 0 on core 10...Done.
Initializing Device 0 on core 10...Done.
Initializing Device 0 on core 4...Done.
Initializing Device 0 on core 0...Done.
Initializing Device 0 on core 1...Done.
Initializing Device 0 on core 7...Done.
Initializing Device 0 on core 2...Done.
Initializing Device 0 on core 5...Done.
Initializing Device 0 on core 11...Done.
Initializing Device 0 on core 11...Done.
Initializing Device 0 on core 8...Done.
Initializing Device 0 on core 3...Done.
Initializing Device 0 on core 6...Done.
Initializing Device 0 on core 12...Done.
Initializing Device 0 on core 12...Done.
Initializing Device 0 on core 9...Done.
Initializing Device 0 on core 4...Done.
Initializing Device 0 on core 7...Done.
Initializing Device 0 on core 10...Done.
Initializing Device 0 on core 13...Done.
Initializing Device 0 on core 13...Done.
Initializing Device 0 on core 5...Done.
Initializing Device 0 on core 11...Done.
Initializing Device 0 on core 14...Done.
Initializing Device 0 on core 8...Done.
Initializing Device 0 on core 14...Done.
Initializing Device 0 on core 6...Done.
Initializing Device 0 on core 12...Done.
Initializing Device 0 on core 9...Done.
Initializing Device 0 on core 7...Done.
Initializing Device 0 on core 15...Done.
Initializing Device 0 on core 15...Done.
Initializing Device 0 on core 13...Done.
Initializing Device 0 on core 8...Done.

Done.

Done.
Initializing Device 0 on core 10...
--------------------------------------------------------------------------
- Using acceleration for lj/cut/coul/long:
-  with 16 proc(s) per device.
--------------------------------------------------------------------------
Device 0: Tesla K20X, 14 CUs, 5.4/5.6 GB, 0.73 GHZ (Mixed Precision)
--------------------------------------------------------------------------

Initializing Device and compiling on process 0...
--------------------------------------------------------------------------
- Using acceleration for lj/cut/coul/long:
-  with 16 proc(s) per device.
--------------------------------------------------------------------------
Device 0: Tesla K20X, 14 CUs, 5.4/5.6 GB, 0.73 GHZ (Mixed Precision)
--------------------------------------------------------------------------

Initializing Device and compiling on process 0...Done.
Initializing Device 0 on core 14...Done.
Initializing Device 0 on core 9...Done.
Initializing Device 0 on core 0...Done.
Initializing Device 0 on core 1...Done.
Initializing Device 0 on core 11...Done.
Initializing Device 0 on core 0...Done.
Initializing Device 0 on core 1...Done.
Initializing Device 0 on core 2...Done.
Initializing Device 0 on core 3...Done.
Initializing Device 0 on core 10...Done.
Initializing Device 0 on core 15...Done.
Initializing Device 0 on core 2...Done.
Initializing Device 0 on core 3...Done.
Initializing Device 0 on core 4...Done.
Initializing Device 0 on core 5...Done.
Initializing Device 0 on core 12...Done.
Initializing Device 0 on core 4...Done.
Initializing Device 0 on core 5...Done.
Initializing Device 0 on core 6...Done.

Done.
Initializing Device 0 on core 7...
--------------------------------------------------------------------------
- Using acceleration for lj/cut/coul/long:
-  with 16 proc(s) per device.
--------------------------------------------------------------------------
Device 0: Tesla K20X, 14 CUs, 5.4/5.6 GB, 0.73 GHZ (Mixed Precision)
--------------------------------------------------------------------------

Initializing Device and compiling on process 0...Done.
Initializing Device 0 on core 11...Done.
Initializing Device 0 on core 6...Done.
Initializing Device 0 on core 7...Done.
Initializing Device 0 on core 13...Done.
Initializing Device 0 on core 8...Done.
Initializing Device 0 on core 9...Done.
Initializing Device 0 on core 10...Done.
Initializing Device 0 on core 8...Done.
Initializing Device 0 on core 11...Done.
Initializing Device 0 on core 12...Done.
Initializing Device 0 on core 12...Done.
Initializing Device 0 on core 13...Done.
Initializing Device 0 on core 9...Done.
Initializing Device 0 on core 10...Done.
Initializing Device 0 on core 11...Done.
Initializing Device 0 on core 14...Done.
Initializing Device 0 on core 12...Done.
Initializing Device 0 on core 0...Done.
Initializing Device 0 on core 1...Done.
Initializing Device 0 on core 2...Done.
Initializing Device 0 on core 3...Done.
Initializing Device 0 on core 4...Done.
Initializing Device 0 on core 5...Done.
Initializing Device 0 on core 13...Done.
Initializing Device 0 on core 14...Done.
Initializing Device 0 on core 15...Done.

Done.
Initializing Device 0 on core 6...Done.
Initializing Device 0 on core 7...Done.
Initializing Device 0 on core 13...Done.
Initializing Device 0 on core 14...Done.
Initializing Device 0 on core 15...Done.
Initializing Device 0 on core 8...Done.
Initializing Device 0 on core 15...Done.

Done.
Initializing Device 0 on core 14...WARNING: Fix recenter should come after all other integration fixes (../fix_recenter.cpp:132)
WARNING: Fix recenter should come after all other integration fixes (../fix_recenter.cpp:132)
WARNING: Fix recenter should come after all other integration fixes (../fix_recenter.cpp:132)
WARNING: Fix recenter should come after all other integration fixes (../fix_recenter.cpp:132)
WARNING: Fix recenter should come after all other integration fixes (../fix_recenter.cpp:132)
WARNING: Fix recenter should come after all other integration fixes (../fix_recenter.cpp:132)
WARNING: Fix recenter should come after all other integration fixes (../fix_recenter.cpp:132)
Done.

Done.
Initializing Device 0 on core 15...WARNING: Fix recenter should come after all other integration fixes (../fix_recenter.cpp:132)
WARNING: Fix recenter should come after all other integration fixes (../fix_recenter.cpp:132)
WARNING: Fix recenter should come after all other integration fixes (../fix_recenter.cpp:132)
WARNING: Fix recenter should come after all other integration fixes (../fix_recenter.cpp:132)
WARNING: Fix recenter should come after all other integration fixes (../fix_recenter.cpp:132)
Done.
Initializing Device 0 on core 9...Done.
Initializing Device 0 on core 10...Done.
Initializing Device 0 on core 11...Done.
Initializing Device 0 on core 12...
--------------------------------------------------------------------------
- Using acceleration for lj/cut/coul/long:
-  with 16 proc(s) per device.
--------------------------------------------------------------------------
Device 0: Tesla K20X, 14 CUs, 5.4/5.6 GB, 0.73 GHZ (Mixed Precision)
--------------------------------------------------------------------------

Initializing Device and compiling on process 0...Neighbor list info ...
  0 neighbor list requests
  update every 1 steps, delay 10 steps, check yes
  max neighbors/atom: 2000, page size: 100000
  master list distance cutoff = 16
  ghost atom cutoff = 16
  binsize = 8, bins = 7 8 10
Neighbor list info ...
  0 neighbor list requests
  update every 1 steps, delay 10 steps, check yes
  max neighbors/atom: 2000, page size: 100000
  master list distance cutoff = 16
  ghost atom cutoff = 16
  binsize = 8, bins = 7 8 10
Done.
Initializing Device 0 on core 13...Setting up Verlet run ...
  Unit style  : real
  Current step: 0
  Time step   : 1
Setting up Verlet run ...
  Unit style  : real
  Current step: 0
  Time step   : 1
Done.
Initializing Device 0 on core 14...Done.


--------------------------------------------------------------------------
- Using acceleration for lj/cut/coul/long:
-  with 16 proc(s) per device.
--------------------------------------------------------------------------
Device 0: Tesla K20X, 14 CUs, 5.4/5.6 GB, 0.73 GHZ (Mixed Precision)
--------------------------------------------------------------------------

Initializing Device and compiling on process 0...Done.
Initializing Device 0 on core 15...Done.

WARNING: Fix recenter should come after all other integration fixes (../fix_recenter.cpp:132)
Done.
Initializing Device 0 on core 0...Done.
Initializing Device 0 on core 1...Done.
Initializing Device 0 on core 2...Done.
Initializing Device 0 on core 3...Done.
Initializing Device 0 on core 4...WARNING: Fix recenter should come after all other integration fixes (../fix_recenter.cpp:132)
WARNING: Fix recenter should come after all other integration fixes (../fix_recenter.cpp:132)
WARNING: Fix recenter should come after all other integration fixes (../fix_recenter.cpp:132)
WARNING: Fix recenter should come after all other integration fixes (../fix_recenter.cpp:132)
WARNING: Fix recenter should come after all other integration fixes (../fix_recenter.cpp:132)
Neighbor list info ...
  0 neighbor list requests
  update every 1 steps, delay 10 steps, check yes
  max neighbors/atom: 2000, page size: 100000
  master list distance cutoff = 16
  ghost atom cutoff = 16
  binsize = 8, bins = 7 8 10
Setting up Verlet run ...
  Unit style  : real
  Current step: 0
  Time step   : 1
Done.
Initializing Device 0 on core 0...Done.
Initializing Device 0 on core 1...Done.
Initializing Device 0 on core 2...Done.
Initializing Device 0 on core 3...Done.
Initializing Device 0 on core 5...Done.
Initializing Device 0 on core 6...Done.
Initializing Device 0 on core 7...Done.
Initializing Device 0 on core 8...Done.
Initializing Device 0 on core 9...Done.
Initializing Device 0 on core 10...Done.
Initializing Device 0 on core 11...Done.
Initializing Device 0 on core 12...Done.
Initializing Device 0 on core 13...Done.
Initializing Device 0 on core 14...Done.
Initializing Device 0 on core 15...Done.

Done.
Initializing Device 0 on core 4...Done.
Initializing Device 0 on core 5...Done.
Initializing Device 0 on core 6...Done.
Initializing Device 0 on core 7...Done.
Initializing Device 0 on core 8...Done.
Initializing Device 0 on core 9...Done.
Initializing Device 0 on core 10...WARNING: Fix recenter should come after all other integration fixes (../fix_recenter.cpp:132)
WARNING: Fix recenter should come after all other integration fixes (../fix_recenter.cpp:132)
WARNING: Fix recenter should come after all other integration fixes (../fix_recenter.cpp:132)
WARNING: Fix recenter should come after all other integration fixes (../fix_recenter.cpp:132)
WARNING: Fix recenter should come after all other integration fixes (../fix_recenter.cpp:132)
WARNING: Fix recenter should come after all other integration fixes (../fix_recenter.cpp:132)
Done.
Initializing Device 0 on core 11...Done.
Initializing Device 0 on core 12...Done.
Initializing Device 0 on core 13...Done.
Initializing Device 0 on core 14...Done.
Initializing Device 0 on core 15...Neighbor list info ...
  0 neighbor list requests
  update every 1 steps, delay 10 steps, check yes
  max neighbors/atom: 2000, page size: 100000
  master list distance cutoff = 16
  ghost atom cutoff = 16
  binsize = 8, bins = 7 8 10
Done.

SHAKE stats (type/ave/delta) on step 0
  53 0.999995 2.06938e-05 15360
  55 109.5 0.0022087
Setting up Verlet run ...
  Unit style  : real
  Current step: 0
  Time step   : 1
SHAKE stats (type/ave/delta) on step 0
  53 0.999993 2.02985e-05 15360
  55 109.5 0.00209705
WARNING: Fix recenter should come after all other integration fixes (../fix_recenter.cpp:132)
WARNING: Fix recenter should come after all other integration fixes (../fix_recenter.cpp:132)
WARNING: Fix recenter should come after all other integration fixes (../fix_recenter.cpp:132)
WARNING: Fix recenter should come after all other integration fixes (../fix_recenter.cpp:132)
WARNING: Fix recenter should come after all other integration fixes (../fix_recenter.cpp:132)
WARNING: Fix recenter should come after all other integration fixes (../fix_recenter.cpp:132)
Neighbor list info ...
  0 neighbor list requests
  update every 1 steps, delay 10 steps, check yes
  max neighbors/atom: 2000, page size: 100000
  master list distance cutoff = 16
  ghost atom cutoff = 16
  binsize = 8, bins = 7 8 10
Memory usage per processor = 13.4063 Mbytes
Step Temp E_pair E_mol TotEng Press Volume 
Memory usage per processor = 13.4084 Mbytes
Step Temp E_pair E_mol TotEng Press Volume 
       0    307.51942    -63015.15    7543.3023   -44942.209   -193.72874     223741.8 
Setting up Verlet run ...
  Unit style  : real
  Current step: 0
  Time step   : 1
       0    301.30499   -62902.022    7603.0193    -44982.15    171.38854    224264.23 
SHAKE stats (type/ave/delta) on step 0
  53 0.999999 8.08098e-06 15360
  55 109.5 0.000846487
Memory usage per processor = 14.4133 Mbytes
Step Temp E_pair E_mol TotEng Press Volume 
       0    305.47533   -62967.892    7614.1506   -44894.093    -344.5095    223199.85 
SHAKE stats (type/ave/delta) on step 0
  53 1 9.56061e-06 15360
  55 109.5 0.00100416
Memory usage per processor = 13.4227 Mbytes
Step Temp E_pair E_mol TotEng Press Volume 
       0    306.09581   -62869.666    7434.3301   -44954.443    237.08847    225394.14 
SHAKE stats (type/ave/delta) on step 0
  53 0.999991 1.50871e-05 15360
  55 109.5 0.00160285
Memory usage per processor = 13.4179 Mbytes
Step Temp E_pair E_mol TotEng Press Volume 
       0    304.43983   -62921.662     7635.549   -44861.921   -645.34543    224664.33 
    1000    300.50612   -63101.624    7705.2488   -45106.876    652.19814    223351.78 
    1000    306.71893   -62972.173    7429.2159   -45040.728    172.98801    224964.16 
    1000    307.36622   -62907.913    7554.2651   -44829.255   -87.245519    223609.15 
    1000    305.70138   -62907.095    7625.8297   -44813.878    38.676297    225557.59 
    1000    303.32574   -62903.956    7665.0197   -44852.891    73.953462    224811.88 
    2000    303.91518   -62982.207    7587.6878   -44988.292   -180.96314    224338.78 
    2000    303.37355   -63098.632    7520.6495     -45190.3    35.693379    223851.29 
    2000     305.1122   -62966.994    7574.6315   -44945.149    277.15345    224637.51 
    2000    304.63353   -62997.591    7559.4035   -45007.364   -381.57265    224489.65 
    2000    301.63227   -63052.982    7552.0944   -45172.828   -233.97663    223840.61 
    3000    300.65351   -62846.561    7458.2384   -45093.777   -280.18966     224820.7 
    3000    304.98175   -63009.286     7592.943   -44973.595   -436.37332    224964.53 
    3000    303.99854   -62958.909    7447.5387   -45102.289    158.85965    224572.65 
    3000    305.95521   -62890.742    7518.2951   -44896.367    395.44429     223661.1 
    3000    300.34249   -62870.815    7608.5202   -44978.398     48.79845    224905.39 
    4000    302.51012   -62920.381    7630.6937    -44931.57   -8.7478105    224697.52 
    4000    303.61839   -62846.626    7480.6748   -44969.886   -300.73594    225307.95 
    4000    307.00733   -62940.222    7600.6444   -44827.473   -58.694961    224175.43 
    4000     306.0417   -62789.498    7599.0808   -44711.376      536.587    224199.32 
    4000    301.29199   -62991.203    7472.4786   -45202.316   -38.900897    224362.57 
    5000      301.985   -62917.215     7546.252   -45030.827    250.76078    225426.22 
    5000    303.41171   -63049.933    7544.3237   -45116.621    568.27184    225012.55 
    5000    303.91384   -62910.263      7552.25   -44951.831   -257.16904    224867.99 
    5000    305.22353   -62843.542    7496.6882   -44895.828    29.242064    224507.55 
    5000    304.57624   -62912.038    7573.0263   -44910.149    143.38267    223642.46 
    6000    305.94487   -62966.263     7612.235   -44878.303     572.7912     223973.1 
    6000    305.78699    -62814.85    7656.4763   -44688.055   -440.88588    225046.79 
    6000    305.39282   -62955.463    7543.9977   -44954.643    110.92195    224463.39 
    6000    302.73363   -62921.091    7555.1952   -45000.125   -280.68486    224740.01 
    6000    305.40588   -62874.478     7582.496   -44834.712    74.111014    223845.19 
    7000    300.90675   -62867.646    7472.8014   -45091.628    363.48062    224944.83 
    7000    309.10987   -62905.622    7535.9142   -44785.611    264.82057    224045.06 
    7000    300.37507   -62859.001    7599.1705   -44974.819   -257.77078    224436.32 
    7000    306.31287   -62887.038    7589.6261   -44809.086    158.03037    224299.37 
    7000    303.54228   -62965.249    7527.3806    -45044.41    244.28484    223426.81 
    8000    303.88682   -62850.231    7561.1838    -44883.79    234.67835    223990.33 
    8000    303.02007   -62928.772    7494.5091   -45058.685   -91.843866     224081.5 
    8000    302.73499   -63077.208     7484.483   -45226.908   -31.006964    223832.95 
    8000    303.81254   -62905.724     7454.555   -45048.456    127.80592    223632.91 
    8000    303.74759   -62750.837    7527.0915   -44823.256   -138.23369    223920.92 
    9000      303.394   -62736.699    7600.0395   -44748.278    117.64156    225352.69 
    9000    301.58995   -62932.719    7466.3688    -45139.74   -666.86791    224493.53 
    9000    306.06323   -62935.753    7576.5741   -44879.401   -38.838295    224195.81 
    9000    303.42301   -62852.357    7509.8832   -44953.099    59.752526    224245.94 
    9000    304.63857   -62876.825    7500.7196   -44945.108   -153.35104    224874.93 
SHAKE stats (type/ave/delta) on step 10000
  53 1 1.86095e-05 15360
  55 109.5 0.00191987
   10000    305.87765   -62903.999    7436.2952    -44994.28    355.11895    224089.99 
SHAKE stats (type/ave/delta) on step 10000
  53 1 1.26747e-05 15360
  55 109.5 0.00131579
   10000    304.66088   -62916.845    7657.3247   -44827.759   -164.07787    224329.97 
SHAKE stats (type/ave/delta) on step 10000
  53 1 1.0422e-05 15360
  55 109.5 0.00104157
   10000    301.27863     -63023.6    7563.0825   -45144.567    12.790315    224061.96 
SHAKE stats (type/ave/delta) on step 10000
  53 1 1.09508e-05 15360
  55 109.5 0.00111086
   10000    302.77764   -63077.427    7639.8564   -45070.293    81.274613    224107.45 
SHAKE stats (type/ave/delta) on step 10000
  53 1 1.09316e-05 15360
  55 109.5 0.00113012
   10000    304.28637    -63100.82    7552.0399   -45129.842   -300.42245     223978.4 
   11000    305.28959   -63054.933    7626.9372   -44974.707   -20.173392    224246.71 
   11000     301.3784   -63022.533    7604.4944   -45098.672   -171.41153    224442.42 
   11000    306.65138   -62996.333    7692.7759   -44803.641   -243.94444    224018.64 
   11000    306.13881   -62880.845    7461.1682   -44937.311    509.23244    222905.37 
   11000    306.55209   -62719.184    7569.0905   -44653.577    400.11556    223567.96 
   12000    305.03199   -62961.247    7549.5474   -44967.232   -177.08431    225090.46 
   12000    307.64511   -62941.002    7528.3611   -44878.699   -289.82795    224783.36 
   12000    301.23997   -62860.729    7518.1468   -45027.955   -241.97496       224235 
   12000    305.53615   -63091.457    7610.1563    -45019.57   -579.18277    224513.83 
   12000    304.82767   -62845.251    7409.2067   -44998.572   -352.79903    224612.54 
   13000    304.22717   -63002.078    7549.1765   -45035.991    186.83807    224112.12 
   13000    302.28623    -62848.65    7508.3925   -44989.806   -108.06508     224062.8 
   13000    304.22077    -62923.49     7516.877   -44989.922    527.00598    224676.18 
   13000    304.36822    -62948.42    7673.8723   -44852.808   -180.34078    223783.61 
   13000    302.77972   -63033.309    7661.7623   -45004.198   -452.43009    224557.07 
   14000    304.71878   -62898.344    7579.5803   -44885.021    163.16781    224788.91 
   14000    300.51375   -62860.138    7587.7047   -44982.672   -191.94792    224759.97 
   14000    305.71045   -62889.859    7441.2474   -44980.913   -102.36851     223787.9 
   14000    302.74809   -62899.754    7403.7418   -45129.746    397.59746    224247.51 
   14000    306.95005   -62821.831    7453.8302   -44857.858    119.38426    224661.21 
   15000    304.28484   -62855.956    7577.2576   -44859.814   -608.37343    224773.97 
   15000     305.6053   -63031.203    7657.3163   -44909.789    186.39399    223836.04 
   15000    307.69662   -62973.764    7568.6319   -44869.426   -127.89507    223583.27 
   15000    302.36397   -62928.282    7521.0624   -45054.107   -215.87273    224971.06 
   15000    303.04704   -62791.232    7617.4449   -44797.285    136.48999    225287.01 
   16000    304.84313   -62901.356    7530.3335   -44933.021    105.52189    224701.14 
   16000    307.80476   -63029.832    7657.5971   -44832.826   -700.53028    223895.84 
   16000    304.90804   -62987.059    7610.7327   -44936.103    42.166046    224227.62 
   16000    302.06271   -62850.135    7515.5039   -44991.833    581.37529    224623.41 
   16000    306.04343    -62869.09    7582.3576   -44807.632    148.38942    224346.36 
   17000     301.5954   -62978.747    7637.0597    -45014.89    18.938591    224247.18 
   17000    306.63624   -63034.658    7527.2451   -45008.015   -203.61424    224984.45 
   17000    304.34713   -62867.274     7548.727   -44897.529    529.71881    224195.93 
   17000    305.93193    -62804.22    7562.9963   -44765.942   -100.70775    224613.99 
   17000    301.94343   -62833.112     7562.964   -44931.434    339.25158    223901.64 
   18000    305.31976   -62974.411    7661.1528   -44858.937   -305.07081    224131.61 
   18000    300.33446   -62865.377    7683.8729   -44897.882    137.20308    223794.01 
   18000    302.85025   -62921.487    7596.1204   -44955.603   -3.4409273    224278.78 
   18000    301.58345   -62953.792    7609.1973   -45018.207    378.75546    223711.84 
   18000    300.62566   -62763.846    7528.9449   -44941.309    254.61835    224050.64 
   19000    304.38998   -63018.115    7490.8486   -45104.782    564.08878    224662.06 
   19000    305.74938    -62898.35    7573.8566   -44855.462   -107.65898    224576.13 
   19000    304.28846   -62771.321    7483.6651   -44868.647    660.29351     224218.5 
   19000    305.29987   -62986.867    7637.5108   -44895.716   -314.22585    225023.91 
   19000    299.65442    -62742.95    7673.9156   -44808.698   -8.7970032    225263.22 
SHAKE stats (type/ave/delta) on step 20000
  53 1 7.60216e-06 15360
  55 109.5 0.000797255
   20000    305.46271   -62858.084    7603.1033   -44795.765    575.84864    223813.57 
SHAKE stats (type/ave/delta) on step 20000
  53 0.999998 4.63831e-06 15360
  55 109.5 0.000473332
   20000    302.85339   -62848.561    7457.0984   -45021.592   -8.8195036    223529.96 
SHAKE stats (type/ave/delta) on step 20000
  53 0.999985 1.65081e-05 15360
  55 109.5 0.00175415
   20000    299.75079   -62850.251    7451.4618   -45135.153    189.01572    224421.37 
SHAKE stats (type/ave/delta) on step 20000
  53 1 4.26113e-06 15360
  55 109.5 0.000400104
   20000    302.58677   -62847.141    7556.4839   -44929.915   -121.86165    223788.85 
SHAKE stats (type/ave/delta) on step 20000
  53 0.999992 1.45656e-05 15360
  55 109.5 0.00153041
   20000    305.78578   -62838.254    7658.1887   -44709.787    268.75554    223534.54 
   21000    302.54118   -62904.434    7572.1672   -44973.086    4.6128133    224606.16 
   21000    309.83892   -63015.956    7556.2302   -44850.666    132.17007    223633.49 
   21000    303.95517   -62865.127    7550.4342   -44907.096     -148.976    225576.81 
   21000    299.94752   -63019.207    7541.7099   -45207.124    41.090035    223543.42 
   21000    305.10258   -62867.093     7535.871   -44884.337    -136.9006    224039.88 
   22000    305.49563   -62849.504    7531.3396   -44857.821    220.73623    223969.05 
   22000    306.01773   -62971.899    7593.2068   -44900.473   -196.11842    224269.59 
   22000    305.97523   -62779.675     7538.674   -44764.236   -407.45893    224642.45 
   22000    302.95844   -62942.855     7443.844   -45125.542    158.72856    223696.07 
   22000    304.56792    -62802.75    7557.2644   -44816.908    151.98991    224490.29 
   23000    307.61852   -62919.466    7619.5329   -44766.901   -265.34553    223989.73 
   23000     302.7473   -62794.582    7588.7807   -44839.563   -4.5999303    225407.31 
   23000    306.07415   -62744.274    7480.6243   -44783.497   -26.596483       225428 
   23000    306.41086   -62848.873    7490.4615    -44866.73    219.20857    223841.99 
   23000    305.72372   -62679.281     7504.247   -44706.881    492.28333    223501.97 
   24000    306.66076   -62992.021    7489.6855   -45002.097    249.61461    223381.31 
   24000    301.94026   -62949.158    7518.7479   -45091.805    185.65001    224153.12 
   24000    300.71551   -62863.409    7546.0158   -45020.724    414.16339    224066.02 
   24000    301.52595   -62993.862    7627.8735    -45041.57   -244.69154    224742.16 
   24000    304.12291    -62728.03    7483.0316   -44831.658    122.85875    223798.72 
   25000    306.14694   -62929.535    7641.0244   -44805.866   -458.93874    224232.16 
   25000    303.39508   -62983.386    7660.2089   -44934.758    -165.4662    225430.54 
   25000    304.31342   -63030.731    7555.4667     -45055.4   -508.77876    223877.32 
   25000    308.14349   -62890.419    7472.0728   -44867.339    423.71588    223618.74 
   25000    304.71182   -62862.674    7503.9949   -44925.174   -76.662128    223863.21 
   26000    299.06004   -62923.248    7618.4027    -45064.86   -35.826456    223461.11 
   26000    308.60766   -62826.443    7489.5271   -44770.016    94.629538    225490.04 
   26000    300.32419   -63064.176    7662.1558    -45118.75   -220.56051    223834.66 
   26000    306.95829   -62852.466    7566.7588   -44775.282   -41.319259    223670.09 
   26000    304.35925    -62724.88    7589.1745   -44714.272    157.30061    224170.76 
   27000    303.28286   -63200.275    7616.6525   -45199.046   -526.82184    223607.13 
   27000    304.08914   -62921.428    7514.5942    -44994.65    509.64598    225139.62 
   27000     308.4796     -62801.2    7486.2125   -44752.471    445.73811    224505.81 
   27000    300.57211   -62883.794    7476.0281   -45116.008    234.19151    223758.95 
   27000    300.81378   -62808.127    7509.5755   -44998.517     395.4092    222893.74 
   28000    304.27827   -62874.247    7444.5213   -45011.066    369.82846    223703.73 
   28000    307.33676   -62800.634    7444.6814   -44832.568    321.87215    225341.08 
   28000    307.17866   -62880.764    7536.5137   -44826.279    531.16346     223158.1 
   28000    301.37405   -62952.229    7598.4731   -45034.538   -558.59273    225313.56 
   28000    303.66169   -62769.202    7490.7987   -44880.856     359.6412     224149.9 
   29000    305.40772   -63045.418    7575.1358    -45012.95   -267.84596     223883.4 
   29000    302.49183   -62924.732    7638.1227   -44929.118    458.02257    224929.46 
   29000     300.1928   -62741.324    7565.3358   -44897.217    252.96926    224402.49 
   29000    304.34012   -62968.836    7540.8585     -45007.2   -423.35867    224656.29 
   29000     302.7823     -62902.1    7599.9563   -44934.707   -40.981329    224344.55 
SHAKE stats (type/ave/delta) on step 30000
  53 1.00001 9.57696e-06 15360
  55 109.5 0.000995761
   30000    304.22215   -62850.099    7668.1011    -44765.26    53.359622    223799.37 
SHAKE stats (type/ave/delta) on step 30000
  53 1.00001 1.73369e-05 15360
  55 109.5 0.00182196
   30000    302.41782   -62887.927    7501.9273   -45031.043    79.541737    224695.02 
SHAKE stats (type/ave/delta) on step 30000
  53 1 2.23046e-05 15360
  55 109.5 0.00234184
   30000    307.05197   -63007.945    7531.9712    -44962.34   -77.076809    224088.16 
SHAKE stats (type/ave/delta) on step 30000
  53 0.999991 1.15508e-05 15360
  55 109.5 0.00118976
   30000    306.33247   -62866.098    7509.3532   -44867.748   -321.81475    224053.71 
SHAKE stats (type/ave/delta) on step 30000
  53 0.999987 1.16211e-05 15360
  55 109.5 0.00121359
   30000    302.24327   -62974.476    7704.3403   -44921.156   -613.35939    224749.36 
   31000    303.03599   -62861.604     7561.829   -44923.651     260.2515    223683.68 
   31000    308.10856   -63040.482    7590.0243   -44900.646    173.11176    224231.98 
   31000    302.58006   -62799.074    7592.5888   -44845.973    144.07926    224093.94 
   31000    302.11825   -62933.544    7412.1765   -45176.668   -197.99384    223175.72 
   31000    306.03623   -62935.946    7628.5688   -44828.523   -246.92438    224403.91 
   32000    306.22915   -63070.008    7468.2017   -45116.347     141.4444    224265.92 
   32000    300.71543   -62832.999    7477.6418   -45058.691   -212.97358    224195.39 
   32000    304.49394   -62972.273    7560.1192   -44986.109    375.17305    223630.84 
   32000    303.47832    -62932.19    7575.1758   -44965.745    145.42923    223665.61 
   32000    306.39024   -62840.124    7590.0057   -44759.144   -271.06108    224481.66 
   33000    303.26644   -62895.485    7517.1903    -44994.28    -803.7932    224726.95 
   33000    303.59083   -63033.557    7468.8293   -45169.606   -130.14658    224460.43 
   33000    305.91139   -62981.533    7454.0272   -45052.927    -29.67717    223313.47 
   33000    300.25729   -62879.696    7444.8521   -45153.865   -349.52706    224592.01 
   33000     303.2755   -62955.176    7584.1501   -44986.701   -210.73691    223273.23 
   34000    307.41008   -62933.381    7572.9929   -44834.493    166.73584    224443.73 
   34000     307.3299   -62852.543    7514.2541   -44815.139    227.52374    224437.72 
   34000    305.88917    -62935.14    7492.4942   -44968.828    388.52295    222759.19 
   34000    306.20681   -62959.852    7616.1367   -44859.021   -157.09543    223952.32 
   34000    303.13874   -62937.721    7457.8967   -45100.183   -361.36644    224882.35 
   35000    301.65026   -62785.875    7470.5732   -44986.626    22.999679    224642.32 
   35000    303.97565   -62833.152    7566.0846   -44858.769    1003.2099    223655.11 
   35000    303.37359   -62956.987    7725.0027   -44844.301   -655.68354    224258.85 
   35000    304.02949    -62927.33    7383.9571   -45133.231    -1.947351    223791.04 
   35000    306.54657   -63046.068    7671.7203    -44878.02   -824.45394    223982.07 
   36000    303.88561    -62906.21    7513.8028   -44987.192    208.43563    224425.17 
   36000    305.45293   -62908.613      7580.13   -44869.602    260.06167     223690.5 
   36000    303.66975   -62888.123     7413.679    -45076.62   -688.40034     224252.2 
   36000    308.29137    -62839.93    7473.6987   -44810.161   -220.63311    224081.21 
   36000    305.16156   -62966.995    7447.1963   -45070.894   -199.64059    223828.98 
   37000    303.67708   -62936.821     7621.325   -44917.421   -283.47565    224843.62 
   37000    302.72664   -62934.592    7434.7515   -45134.309     696.7375    224028.44 
   37000    304.73603   -63172.741    7661.5426   -45076.864   -151.03705    223752.34 
   37000    303.32505   -63020.107    7556.1965   -45077.889   -563.24204     223702.6 
   37000    308.30556    -62885.98    7512.4736   -44816.949    306.80766    223426.83 
   38000      306.061   -62867.623    7562.1529   -44825.768    694.79681    223642.45 
   38000    307.35471   -63113.713    7566.7949   -45022.919    128.69111    223601.48 
   38000    301.21223   -62963.488    7573.6512    -45076.16    252.32579    223814.46 
   38000    304.72175   -62981.727    7615.5435   -44932.339    65.864578    223434.52 
   38000    304.25188   -62922.234    7466.2223   -45038.256   -126.30733    224501.98 
   39000    306.52866   -62830.849    7523.9107   -44811.224     146.3575    224470.54 
   39000    304.58546   -62862.812    7524.6644    -44908.97    238.49845    224135.63 
   39000    303.79474   -62970.505    7648.6551   -44919.747   -33.070028    224243.63 
   39000    304.29117   -63024.222    7644.5278   -44960.593   -198.59253       223265 
   39000    305.41504    -62927.47    7579.8465    -44890.04    108.26571    223705.05 
SHAKE stats (type/ave/delta) on step 40000
  53 0.999997 1.53188e-05 15360
  55 109.5 0.00159509
   40000    303.81196   -62927.472    7555.6338   -44969.145   -147.50086    224699.25 
SHAKE stats (type/ave/delta) on step 40000
  53 1 1.00118e-05 15360
  55 109.5 0.00102512
   40000    303.50006   -62857.611    7453.2028   -45012.395    33.049837    223619.11 
SHAKE stats (type/ave/delta) on step 40000
  53 0.999999 1.32751e-05 15360
  55 109.5 0.00134772
   40000     303.9284   -62952.403    7541.7526   -45003.971   -363.10959    223980.27 
SHAKE stats (type/ave/delta) on step 40000
  53 0.999999 4.20417e-06 15360
  55 109.5 0.000403358
   40000    308.12759   -63062.438    7676.0287   -44835.946   -384.82315    223649.95 
SHAKE stats (type/ave/delta) on step 40000
  53 1 2.86723e-06 15360
  55 109.5 0.000262921
   40000    304.75579   -63007.187    7568.8379   -45003.339    451.75513    223676.85 
   41000     302.6585   -62807.205    7312.0094   -45131.998   -103.87533    224279.83 
   41000    301.61231   -62911.631    7520.8197   -45063.435   -660.02522    224255.78 
   41000    304.86355   -62989.668    7605.0622   -44945.906    106.85474    224233.57 
   41000    306.98386   -63242.823    7490.1038   -45241.418    96.985609    223467.77 
   41000    303.65927   -62906.098      7547.78   -44960.853    146.31316    224239.28 
   42000    304.52925   -62975.062    7527.1705   -45020.638   -95.505303    224244.94 
   42000    299.94086   -62989.954    7640.8771   -45078.932    112.72818    224133.23 
   42000     306.5667   -62881.727    7601.8843   -44782.826    218.00405    224597.35 
   42000    303.56398   -62973.234    7629.2581   -44949.774   -401.89574    224372.03 
   42000    305.04286   -62925.665    7572.7064   -44908.119    378.08914    223891.75 
   43000    306.97536   -62798.078    7468.3595   -44818.709   -53.907553    224522.19 
   43000    307.28129   -62977.562    7567.2246   -44888.853   -526.58795     224600.2 
   43000      308.861    -62939.25    7609.4346    -44754.24    252.93839    223929.92 
   43000    302.55787   -62889.344    7410.6139   -45118.977   -177.12123    224753.89 
   43000     306.1053   -62995.321    7493.1054   -45020.997   -320.62882     223756.8 
   44000    301.76189     -62932.8    7537.9245   -45062.378   -23.407392    225145.69 
   44000    304.41954   -62873.692     7570.447   -44879.748   -404.83575    224468.18 
   44000     302.5317    -62871.43    7494.4646   -45018.109    247.64454    224464.93 
   44000    302.87677   -63118.661    7533.2195   -45214.769    130.58342    223286.02 
   44000    306.64574   -62837.435    7653.2046   -44684.507   -205.95783    223629.15 
   45000    304.07291    -62897.98    7602.2713    -44884.08    65.260008    224495.09 
   45000    301.03137    -63066.96    7659.1239   -45100.352   -159.10186    224431.81 
   45000    304.38083   -62909.671    7661.3722   -44826.127    284.93588    224013.25 
   45000    303.55738   -63066.418      7570.71   -45101.732    270.97456    223821.21 
   45000    301.76892   -62867.136    7569.6086   -44964.789    3.7343164    223780.13 
   46000     301.3269   -62954.773    7521.7425   -45115.427    15.586395    224674.86 
   46000     303.6851   -62931.446     7607.297     -44925.8    329.70658    224519.17 
   46000    303.73416   -62796.734    7609.0405   -44787.664    303.52614    223726.24 
   47000    303.68256   -62906.064    7556.5501   -44951.252    236.53438    223381.11 
   46000    304.43132   -62828.502    7600.5052   -44804.096    158.96656     224182.5 
   47000    307.26772   -62940.041    7549.1095   -44869.912    27.356387    225001.36 
   46000    302.13104   -62941.313    7533.6557    -45062.52    173.49721    224596.41 
   48000    305.90281   -62892.534    7448.5223   -44969.727   -19.967173    223714.52 
   47000    301.82102   -62996.844    7554.2239   -45108.097    63.585448    223150.61 
   47000    301.15427   -62855.968    7641.9586   -44902.317    715.27938    224402.97 
   48000    305.96977   -62864.848    7538.2023   -44850.067   -183.52877    224138.26 
   47000    304.96444   -62958.645    7388.9912   -45127.499   -115.12463     224454.4 
   49000     307.2204    -62962.97    7622.1756   -44821.395   -31.550402    223696.44 
   48000    304.52937   -63015.973    7592.0684   -44996.647    161.95852    223908.46 
   48000    303.78639   -62932.083    7475.6085   -45054.657    718.95765    224314.17 
   49000    303.96162   -62892.331    7669.7046   -44814.809    -251.5926    223980.35 
   48000    304.57582   -62834.617     7677.593   -44728.176   -57.593373    225158.33 
   49000     306.1346   -62926.267    7566.6781   -44877.368    423.50356    224454.79 
SHAKE stats (type/ave/delta) on step 50000
  53 1 8.74075e-06 15360
  55 109.5 0.00091294
   50000    302.21884    -62914.97    7621.2881   -44945.539    22.473847    224340.33 
   49000    307.39237    -63006.54    7557.1327   -44924.119    19.214116    224158.66 
SHAKE stats (type/ave/delta) on step 50000
  53 1.00001 6.85816e-06 15360
  55 109.5 0.000683237
   50000    304.44596   -62831.532    7538.0656   -44869.064   -327.98027    224809.57 
   49000    305.14513    -62972.75    7513.6016   -45010.807   -86.883255    224492.61 
SHAKE stats (type/ave/delta) on step 50000
  53 0.99999 1.89521e-05 15360
  55 109.5 0.00201759
   50000    304.16598   -62965.857    7563.5845   -44987.457   -226.64238    224147.15 
   51000    304.77807   -62809.177    7483.6972   -44889.706    198.42459    223677.38 
SHAKE stats (type/ave/delta) on step 50000
  53 1 2.30662e-05 15360
  55 109.5 0.0024452
   50000    306.30294   -62930.998    7645.8018    -44797.21    189.91302     224178.2 
   51000    303.23997   -62946.841    7509.7756   -45053.957   -134.88972    224503.96 
SHAKE stats (type/ave/delta) on step 50000
  53 0.999999 7.18252e-06 15360
  55 109.5 0.000742542
   50000    303.60657    -63021.32    7562.8339   -45062.825    419.70472     223988.7 
   51000    305.67999   -62971.632    7490.1362   -45014.841    462.17733    224468.51 
   52000    310.58365   -62863.183    7570.4225   -44658.201   -44.918843    224591.45 
   51000    306.31576   -62958.398    7632.5278   -44837.446    -178.3628    224172.95 
   52000    305.00389   -62707.612    7572.9687   -44691.138     286.0825    224619.89 
   51000    304.79951    -62954.27    7558.5265   -44959.236    387.38202    223869.72 
   52000    302.93465   -62999.114    7569.6838   -45056.777    104.75792    224059.38 
   53000    304.37397   -62698.667    7550.7473   -44725.983    73.607834    224798.97 
   52000    307.17309   -62884.973    7595.5408   -44771.652    125.43294    224547.24 
   53000    303.21365   -62941.461    7443.2731   -45115.981    113.05779    223909.59 
   52000    305.44036   -63016.468    7565.4311   -44992.587    345.22039    224226.09 
   53000    308.56999   -62883.689    7505.6015   -44812.476    145.68929    225314.88 
   54000    302.55535   -62975.656     7559.714   -45056.276   -652.22724    224533.01 
   53000    304.28414   -62937.891    7546.6268   -44972.403    239.86829    223825.33 
   54000    307.90634   -62865.036    7476.5424   -44845.607    289.02086    224040.01 
   53000    304.38433    -62851.95    7556.8574   -44872.802   -17.681637    223763.68 
   54000    306.11355   -62918.438    7469.6307   -44967.306    185.98086    224424.27 
   55000    303.69481    -62730.71    7437.3681    -44894.66     379.5831    224123.25 
   54000    308.96409    -62995.21    7582.4951    -44833.61     252.8547    223311.11 
   55000    309.41795   -62865.291    7645.7786   -44624.867    629.55275    225156.25 
   54000    302.71713   -63033.384    7549.2648   -45118.914   -85.242841    223769.54 
   55000    302.83958    -63077.99    7694.3114    -45014.28    102.10538    223991.74 
   56000    303.03462   -62830.678    7626.9017     -44827.7    383.72978    223306.98 
   55000    304.54762   -63104.124    7528.1537   -45148.087     24.52638    224862.04 
   56000    303.01676   -62839.639    7614.8081   -44849.366    95.996177    224793.44 
   55000     303.1879   -62852.713    7420.2727   -45051.115    296.17953    223560.95 
   56000    303.20711   -62815.419    7555.2269   -44878.209    14.471696    224254.43 
   57000    305.82799   -62686.851    7472.8137   -44742.314    96.028797    224833.38 
   56000     301.4707   -62880.335     7658.967   -44898.841     26.93618    223559.55 
   57000    305.50705   -62879.838    7606.0501   -44813.053     652.4181    224221.94 
   56000    304.13909   -63051.683    7577.1747   -45060.614   -232.64936    223643.17 
   57000    304.85902   -62839.875    7576.5523   -44824.778   -459.66514    223861.21 
   58000    304.49049   -63088.899    7588.0921   -45074.881    135.35004    223822.44 
   57000    305.70539   -62928.604    7651.2052   -44809.873   -207.13312    224720.61 
   58000    307.78411   -62915.573    7537.2582   -44839.613     326.7603    224543.76 
   57000     303.5023   -63075.551    7474.9286   -45208.532    18.919395     223955.7 
   58000    304.97441   -62829.878    7550.4687   -44836.914   -61.031928    224144.68 
   58000    307.16749   -62971.131    7590.1674   -44863.375   -95.679242    224412.27 
   59000    304.19388   -63079.838    7499.9173    -45164.15    214.46328    223289.15 
   59000    301.88916   -62869.041    7633.6918   -44898.494   -118.72745    224464.77 
   58000    302.56827   -62777.446    7584.1491   -44833.188    230.70894    223232.25 
   59000     306.2148   -62752.105    7588.6452   -44678.492    113.47941    224228.66 
   59000    304.52157    -63058.74    7462.8522   -45168.897   -406.93459    223407.18 
SHAKE stats (type/ave/delta) on step 60000
  53 1 2.05051e-05 15360
  55 109.5 0.00218678
   60000      305.499   -62966.565    7582.8308   -44923.276    380.11852    225019.93 
SHAKE stats (type/ave/delta) on step 60000
  53 1 7.86651e-06 15360
  55 109.5 0.000831241
   60000    308.57038    -62776.49    7407.6223   -44803.243    259.81595    223974.81 
   59000    302.59946   -62879.051    7497.2155   -45020.659    189.61322    224338.47 
SHAKE stats (type/ave/delta) on step 60000
  53 1.00001 1.88946e-05 15360
  55 109.5 0.00197209
   60000    304.46729   -62870.062     7483.388   -44961.542    615.19553    224432.76 
SHAKE stats (type/ave/delta) on step 60000
  53 0.999999 6.14055e-06 15360
  55 109.5 0.000601126
   60000    301.74923    -62644.77     7514.872   -44797.833    -209.9489    224623.63 
   61000    306.65034   -62953.943    7627.8086   -44826.254   -182.24988    223990.04 
   61000    304.02279   -62925.019    7594.2117   -44920.895   -67.511151     224228.1 
SHAKE stats (type/ave/delta) on step 60000
  53 1 7.62204e-06 15360
  55 109.5 0.000787973
   60000    300.54695   -62752.806    7543.2337   -44918.675   -115.36919    224229.95 
   61000    302.71514   -62824.137    7632.3671   -44826.633    177.42729    224999.68 
   61000    304.97709   -62888.603    7600.8429   -44845.172    595.45473    223485.27 
   62000    302.59149   -62966.461    7549.9191   -45055.638    337.54937    224186.47 
   62000    306.15351   -62929.617    7580.7092   -44866.039    4.2105241    224195.19 
   61000    301.75936   -62912.281    7511.6212   -45068.249    692.81315    223997.18 
   62000    300.87551   -62899.314    7506.3165    -45090.85   -254.45408    224401.94 
   62000    305.13086   -62889.539    7395.0668   -45046.619     132.6675    224668.23 
   63000    308.67152   -62978.841    7558.3451   -44851.408     361.2204    224350.13 
   63000    303.82714   -62902.517     7613.659   -44885.645    12.352564    225071.94 
   62000    308.51122   -62881.883    7519.7352   -44798.549   -96.517004    223990.14 
   63000    302.36255   -62965.516    7627.4846   -44984.967   -465.79032    224839.35 
   63000    303.27094   -62827.013    7542.6451     -44900.2    -308.6978    224701.54 
   64000     301.6283   -62962.552     7565.056   -45069.573    498.23317     224350.3 
   64000     303.4371   -62958.636    7456.6655   -45112.113    342.81486    224114.53 
   63000    301.69276   -62859.887    7476.0425   -45053.714    269.15843    223143.57 
   64000     304.3393   -62988.852    7542.4566   -45025.646   -456.10511    224745.94 
   64000    305.54664   -62887.361    7557.1526   -44868.118   -255.49837    224326.41 
   65000    305.32552    -62867.24    7580.9834   -44831.738    453.20401     224324.7 
   65000    306.55533   -62771.396      7657.65   -44617.118    541.67644     223989.1 
   64000    305.00646   -62794.252    7570.6342   -44780.024   -139.59035    224193.78 
   65000    304.24506   -63084.975    7522.2556   -45145.196   -677.68533    224457.12 
   65000    306.16306   -62969.097     7645.979   -44839.922   -282.97987    225038.11 
   66000    307.14972    -62851.84     7453.125   -44881.735    731.33096    224142.78 
   66000    306.08122    -63038.04    7622.7131   -44934.933   -27.432929    224485.23 
   65000     302.8993   -62819.126    7481.7612   -44965.921    -159.5902    224790.63 
   66000    304.95449   -62843.539    7576.3469   -44825.378   -970.08485    224094.56 
   66000    302.42357    -62970.28    7590.3054    -45024.82    166.96988    223669.23 
   67000    301.48644     -62812.9     7630.254    -44859.58    577.49121    224634.48 
   67000    301.12527   -62727.099    7538.2801   -44878.119    36.392046    225420.57 
   66000    303.07298   -62975.051    7563.2846   -45034.377    125.13912    224399.63 
   67000     305.1845   -62845.835    7551.1434   -44845.002   -595.68036    223749.45 
   67000     301.6524   -62869.527    7616.7177   -44924.061   -136.56702    223814.91 
   68000    304.48777   -62892.044    7479.6486   -44986.562    348.60277     225048.8 
   68000    301.79111   -62852.787    7554.4218   -44964.867   -114.87903    224282.15 
   67000    305.86491   -63135.185     7595.601   -45066.596    109.50967    223607.31 
   68000    304.98388   -63005.327     7452.383   -45110.124    -317.1465    223300.75 
   68000    307.43778    -63066.35    7614.1567    -44925.35    62.223902     223741.5 
   69000    307.10692   -62776.305    7492.9799   -44767.811   -204.56213    224096.37 
   69000    303.21241   -62864.775    7648.3003   -44834.311    367.31166    224499.55 
   68000    306.40373   -62920.671    7516.1648    -44913.07    132.84275    223384.26 
   69000    302.58203   -62952.755     7478.269   -45113.906    153.64671    223263.17 
   69000      302.431   -62991.198    7616.3991    -45019.39   -438.81957    224834.48 
SHAKE stats (type/ave/delta) on step 70000
  53 1.00001 1.23111e-05 15360
  55 109.5 0.00129231
   70000    305.98304   -63000.654    7597.1095   -44926.512   -433.43112    224928.42 
SHAKE stats (type/ave/delta) on step 70000
  53 1 3.47414e-06 15360
  55 109.5 0.000334427
   70000    300.32356   -62786.478    7559.1083   -44944.122    243.38965    224923.68 
   69000    302.10306   -62913.527    7552.2324   -45017.115   -215.21285    223965.43 
SHAKE stats (type/ave/delta) on step 70000
  53 1 3.6871e-06 15360
  55 109.5 0.000363289
   70000    302.24018   -62875.301     7586.657   -44939.769   -125.41226     224200.6 
SHAKE stats (type/ave/delta) on step 70000
  53 1 9.66177e-06 15360
  55 109.5 0.00100459
   70000    301.76487   -62937.777    7571.8281   -45033.349    82.256815    224459.69 
   71000    300.58237   -63063.911    7741.1815   -45030.619   -489.30462    224724.07 
   71000    304.88749   -63047.032    7538.6674   -45068.845    79.484963    224675.88 
SHAKE stats (type/ave/delta) on step 70000
  53 0.999995 1.34238e-05 15360
  55 109.5 0.00143653
   70000    308.20496   -63088.117    7589.3649    -44945.64     219.7463    223204.06 
   71000    311.07993   -62966.739    7655.3392   -44659.847   -604.25441    224712.97 
   71000    303.81605    -62942.75    7597.2991   -44942.617   -83.610698    224796.71 
   72000    302.71668   -62951.833    7567.7778   -45018.865     -156.054    224758.07 
   72000    302.38411   -62709.271    7587.2941   -44768.174   -67.789859    224434.98 
   71000     305.8172   -63086.512    7490.2746   -45124.884    50.497172    224582.44 
   72000    308.25904   -62860.616    7384.1733   -44921.479   -120.55674    224528.52 
   72000    303.32615   -62884.733    7558.0806   -44940.594    434.76498    224240.08 
   73000    306.37116   -62897.518    7569.5091   -44837.687    311.29206    224571.03 
   73000    306.01921   -62887.173    7469.9431   -44938.959   -241.01203    225177.52 
   72000    305.08099   -62869.804    7578.0174   -44845.641    188.52411    224411.75 
   73000    305.92224   -63018.812    7678.7993   -44865.062   -282.10853     224276.9 
   73000    303.98902   -62892.487    7585.3821    -44898.35    282.28364    224044.64 
   74000    303.19286   -62905.604    7586.6971   -44937.412   -169.49542    223680.75 
   74000    302.28375   -62853.636    7525.6556   -44977.614   -280.89303    225116.48 
   73000    301.91723   -62981.481    7487.5261   -45156.139      78.7898    223870.02 
   74000    302.61604   -62939.982    7527.9872   -45050.251   -402.47413    224044.46 
   74000    303.00733   -62999.083    7534.0533   -45089.887     139.5951    223585.31 
   75000     303.5536   -63049.704    7612.3407   -45043.516   -459.16057    224192.13 
   75000     305.0481   -62822.491    7596.1981   -44781.274   -217.19638    224536.62 
   74000    305.15127   -63045.896    7473.0459   -45124.298    164.08202    223494.65 
   75000    304.77328    -62834.16    7430.6507     -44967.9   -19.037052    223829.38 
   75000    307.98515   -62905.449    7511.9489   -44847.915    31.752525    224175.71 
   76000    305.05347   -62931.867    7449.6222   -45037.041    92.401969    223565.69 
   76000    299.87189   -62927.288    7529.9154    -45129.59   -585.74569    224292.52 
   75000    299.92997   -62922.886    7434.5676   -45218.547    240.32933    223684.49 
   76000    305.93782    -62902.15    7487.4402   -44939.226    89.149061     224542.8 
   76000    304.49869    -62755.16    7509.5311   -44819.422    108.06722    224478.36 
   77000    305.81678   -62923.677    7676.0475    -44776.29    605.90433    223273.96 
   77000    304.18903   -62854.036     7662.481   -44775.951   -44.023447    224761.09 
   76000     304.4513   -62922.883    7641.7211   -44856.577   -236.15277    224844.32 
   77000    307.45116   -62713.101    7476.5756   -44709.224    308.27117    224054.66 
   77000    305.08623    -62985.95    7555.9395   -44983.686   -294.54579    224587.98 
   78000    305.05016   -62837.594    7641.9643   -44750.539    71.712932    224347.34 
   78000     303.2412   -62833.451    7469.1773   -44981.124   -53.139442    225915.79 
   77000     305.5894   -62948.758    7640.2302   -44844.975   -437.85061    224101.68 
   78000    304.64562   -62962.529    7480.4697   -45050.821   -271.74269    224567.06 
   78000    303.37641   -62999.163    7618.2276   -44993.155    680.63387    224232.51 
   79000    301.79156   -62843.572    7578.6257   -44931.433    150.86589    224501.29 
   79000    305.01772    -62921.73    7487.8303   -44989.921   -314.32821    224071.68 
   78000    307.02869   -62869.495    7553.6196    -44803.04    219.55967    223749.26 
   79000    304.90739   -62937.633    7663.2308   -44834.201   -157.35973       224328 
   79000    306.85972   -62966.052    7641.4627   -44817.539    716.58057    223248.16 
SHAKE stats (type/ave/delta) on step 80000
  53 1.00001 4.79834e-06 15360
  55 109.5 0.000472326
   80000    303.66264   -62881.586    7595.3168   -44888.689   -106.17916    225954.18 
SHAKE stats (type/ave/delta) on step 80000
  53 0.999997 1.93915e-05 15360
  55 109.5 0.00204322
   80000    303.27354   -62969.836    7433.9347   -45151.644   -430.97021    224144.17 
   79000    305.43145   -62755.683    7359.8003   -44937.738    137.26971    223502.43 
SHAKE stats (type/ave/delta) on step 80000
  53 0.999999 7.58457e-06 15360
  55 109.5 0.000786584
   80000    301.48795   -62794.834    7558.9244   -44912.792   -67.299664    223701.72 
SHAKE stats (type/ave/delta) on step 80000
  53 0.999999 8.49052e-06 15360
  55 109.5 0.000847113
   80000    307.21113   -62776.153    7631.4228   -44625.648    542.11475    224606.32 
   81000     301.7436   -62801.152    7552.7644   -44916.516    26.393629    224678.57 
   81000    303.32726   -62993.289    7479.0945   -45128.098    265.29315    224370.83 
SHAKE stats (type/ave/delta) on step 80000
  53 1 1.94669e-05 15360
  55 109.5 0.00205056
   80000    300.09605   -63000.456    7581.7215   -45143.276   -246.58991    223159.49 
   81000    303.48585   -62821.954    7586.0472    -44844.38   -184.07122    224378.75 
   81000    303.36336   -62963.079    7547.0126   -45028.734   -317.64495    224103.21 
   82000    303.97502   -62818.054    7559.9667   -44849.811    369.77714    223976.09 
   82000    304.47571   -62948.949    7493.1952   -45030.333    166.11795     224228.7 
   81000     301.4183   -62798.338    7584.0396   -44893.565   -277.73558    224100.71 
   82000    302.08436   -62947.678    7524.9186   -45079.221    220.64301    223288.02 
   82000    306.00363   -62939.859    7539.7772   -44922.345   -302.84109    224272.07 
   83000    303.36122   -62875.066    7564.1774   -44923.629    241.00512    224047.49 
   83000    305.13893   -62821.772    7406.7079   -44966.935    424.60437    223899.92 
   82000    305.26932   -62842.275    7501.6202   -44888.061   -294.67498    224144.77 
   83000     301.8893   -63052.674    7599.4933   -45116.321   -444.99148    224336.49 
   83000    304.57506   -62967.171     7622.335   -44916.014   -122.96742    224265.31 
   84000    301.88307   -62821.446    7557.0896   -44927.709    -64.51771    224930.73 
   84000    304.78083    -62895.19    7607.5531   -44851.769    -50.96243    224181.34 
   83000     305.9554   -62718.239     7487.592   -44754.561    8.7191099    224229.02 
   84000    300.49498   -62813.692    7569.8892   -44954.685    460.32812    224582.22 
   84000    303.55925   -62865.843    7417.3063   -45054.497   -147.82894    224333.54 
   85000     304.7294   -62856.856    7586.4425   -44836.307   -381.46344     224927.6 
   85000    302.65831   -62908.633    7457.6344   -45087.807    777.37033    223531.19 
   84000    307.96431   -62933.687    7602.3819   -44786.433   -55.243125     223698.4 
   85000    306.74579   -62966.269    7627.9203   -44835.199   -134.28864    223495.04 
   85000    299.59069   -63012.347    7513.2207   -45240.972   -207.48993    224558.31 
   86000     305.1297   -62918.289    7544.0409   -44926.435   -200.93611    225047.57 
   86000    302.65236   -62917.956    7669.0745   -44885.894    -425.4351    224492.18 
   85000    306.03478   -62872.014    7550.9042   -44842.306    -421.0599    223977.39 
   86000    302.98251   -62942.696    7512.0669   -45056.337    789.04377    223502.73 
   86000    304.52933   -62907.681    7417.1776   -45063.247    598.49225    223906.08 
   87000    299.32721   -62773.198    7674.0803   -44849.985   -393.41213    225226.15 
   87000    299.54805   -62980.912     7550.706   -45173.512   -52.796722    224202.37 
   86000    304.18874   -62900.306    7529.7712    -44954.94     272.7763    224126.86 
   87000    302.38793   -62879.577    7634.7683   -44890.876   -5.5301887    224186.09 
   87000    302.43585   -62978.232    7523.7228   -45098.935    653.90064    223820.54 
   88000    304.93674   -62892.644    7471.8808   -44979.557    179.15027    224377.15 
   88000    305.19495   -62917.355    7575.2007   -44892.106    86.043671    224608.37 
   87000    303.23305   -62984.877    7514.9417   -45087.065   -223.67492     224795.5 
   88000    305.64795   -62948.764    7619.0203   -44864.186   -527.98434    223780.28 
   88000    305.53335   -63037.083     7495.899   -45079.549    533.95028    223846.42 
   89000    303.15248   -62939.946    7576.0419   -44983.792   -51.577789    225183.15 
   89000    306.17517   -62975.137     7499.909   -44991.617   -131.14319    223913.45 
   88000     301.6986   -62923.988    7598.6189   -44995.039   -306.62255    224071.94 
   89000    304.09773   -63018.984    7445.8476   -45160.658    115.13155    223906.41 
   89000    305.98837   -62875.205    7524.9379   -44873.052    92.785773    225217.68 
SHAKE stats (type/ave/delta) on step 90000
  53 0.999995 9.84028e-06 15360
  55 109.5 0.00101038
   90000    302.68004   -62778.994    7545.1729   -44869.886   -281.33323    224594.53 
SHAKE stats (type/ave/delta) on step 90000
  53 0.999992 1.03107e-05 15360
  55 109.5 0.0010598
   90000    305.11606   -62893.428    7518.7114   -44927.371    131.56761    224002.77 
   89000    302.67266   -62950.514    7553.9222   -45032.909   -195.77906    224113.84 
SHAKE stats (type/ave/delta) on step 90000
  53 0.999996 1.53383e-05 15360
  55 109.5 0.00162449
   90000    298.41345   -63051.815    7587.0139   -45246.956   -114.71927     223161.3 
SHAKE stats (type/ave/delta) on step 90000
  53 1 3.02869e-06 15360
  55 109.5 0.000245834
   90000    304.27532    -62931.43    7520.2501   -44992.622   -80.134314    224902.51 
   91000    308.78896    -62857.54    7550.1788   -44734.253     53.42022    224468.07 
   91000    308.22585   -63026.183     7677.572   -44794.783   -55.945555    223663.34 
SHAKE stats (type/ave/delta) on step 90000
  53 0.999996 1.32752e-05 15360
  55 109.5 0.0013828
   90000    307.64939   -63034.625    7413.1566   -45087.379   -7.2810132    223842.52 
   91000    305.06503   -63017.164    7598.0078   -44973.557    394.38677    223480.47 
   91000    310.09174   -62956.996    7655.3024   -44683.977   -204.15103    223849.29 
   92000    307.45844   -62892.417    7565.8003   -44799.066    -263.9468    224514.32 
   92000    299.14005   -62890.505    7606.0399   -45041.741   -409.50406    224521.02 
   91000    308.20796   -62855.586     7492.741    -44809.63   -335.69985    223398.21 
   92000    303.86023   -62926.515    7602.3815   -44919.787   -165.71468    224925.75 
   92000     301.2645   -62974.719    7378.9301   -45280.322    136.77265    223653.22 
   93000    296.62801   -62999.701    7454.1792   -45388.811    36.624819    224881.52 
   93000    301.55981   -62917.593    7531.6093   -45060.405   -192.55257    224858.21 
   92000    304.15432   -62903.708    7540.3445   -44948.948   0.32813755    224234.41 
   93000    304.04284   -62898.914    7492.0545   -44996.261    42.136756    224276.79 
   93000     303.8625    -62976.35    7488.3486   -45083.577    282.73632    223798.53 
   94000    303.49835   -62822.332    7548.6601   -44881.717    -210.9553    224395.57 
   94000    304.00046   -62900.836    7533.5641   -44958.124   -534.24417    225277.53 
   93000    306.22055   -62811.765    7462.0992   -44864.502    144.79818    223374.12 
   94000    304.56229    -62934.15    7513.1669   -44992.598   -430.46868    224170.44 
   94000    307.24895   -62761.765    7547.3289   -44694.059    603.46352    224491.83 
   95000    302.14536     -62964.2    7389.6513   -45228.921    237.11486    224610.27 
   95000    303.48496   -62798.382    7600.8523   -44806.033   -49.099161    225185.51 
   94000    303.94134   -62898.687    7462.7962   -45028.768    305.19668    223631.93 
   95000    305.13351   -63019.323    7473.6053   -45097.774   -608.35488    224868.56 
   95000    306.43288    -62952.21     7486.388   -44973.387   -206.42973    224122.28 
   96000    307.78568   -62971.925    7543.7606   -44889.409   -282.18851    224060.54 
   96000     302.6742   -62840.569    7631.1716   -44845.662   -269.15626     225112.6 
   95000    306.64061   -63218.868    7639.8829   -45079.437    63.375063    223620.87 
   96000    304.27608   -62965.611    7467.6314   -45079.395   -55.259389    224124.47 
   96000    304.98878   -62793.937    7453.7418   -44897.207   -33.218757    225351.58 
   97000    300.38664    -62898.84    7621.3185   -44992.113    68.302368    223901.68 
   97000    305.86608   -62779.131     7480.909   -44825.195   -322.35227    224759.88 
   96000    307.07115   -62874.235    7605.5698   -44754.376    1.6624017    224606.13 
   97000    308.07789   -62893.487    7540.6242   -44804.101    10.573856    224887.86 
   97000    307.24138   -62828.967    7528.2635   -44780.585    217.45042     224799.4 
   98000    303.18692   -62884.783    7417.5692   -45085.923    162.73701    225180.12 
   98000    304.90349   -62904.007     7547.739   -44916.201   -113.42661    225024.33 
   97000    306.35381   -62961.936    7495.1056   -44977.103    49.743462    223684.64 
   98000    306.68815   -63007.472    7590.7344   -44915.562    79.470234    224732.43 
   98000    304.40462   -62884.454    7566.2336   -44895.234   -204.27212     225209.4 
   99000    305.46337   -62878.366    7551.3307   -44867.797    241.40462    224568.77 
   99000    307.10858   -62839.555    7652.2914   -44671.693   -260.03158    224582.77 
   98000    303.42183   -62955.953    7486.6857   -45079.933   -570.89111    224275.94 
   99000    307.08078   -62881.417    7608.1003   -44758.697    75.151533    224254.77 
   99000    303.11447   -62818.276    7506.2166   -44933.249   -8.1675957    224406.73 
SHAKE stats (type/ave/delta) on step 100000
  53 1.00001 9.04527e-06 15360
  55 109.5 0.000908178
  100000     304.7791   -62915.113     7495.066   -44984.238   -91.162108    224272.37 
SHAKE stats (type/ave/delta) on step 100000
  53 1 8.39339e-06 15360
  55 109.5 0.000874048
  100000    304.90931    -62869.49    7426.8185   -45002.405   -64.608651    224130.53 
   99000    304.32383   -62755.116    7507.7637   -44827.132   -555.35945    224317.93 
SHAKE stats (type/ave/delta) on step 100000
  53 1 1.61282e-05 15360
  55 109.5 0.00168265
  100000    299.34478   -62809.635    7599.7366   -44960.164    309.26516    224636.66 
SHAKE stats (type/ave/delta) on step 100000
  53 0.99999 2.68584e-06 15360
  55 109.5 0.000261319
  100000    302.84602   -62791.659    7581.9304   -44840.109    350.82585    223851.09 
  101000    305.25591   -62874.874    7488.1038   -44934.635   -341.60982    224832.29 
  101000    305.16178   -63041.409    7542.5861   -45049.911   -435.70168    224943.57 
SHAKE stats (type/ave/delta) on step 100000
  53 0.999998 1.17557e-05 15360
  55 109.5 0.00115977
  100000     304.4148    -62976.22    7580.1268   -44972.759    -194.2045    224033.64 
  101000    304.56438   -62966.034    7527.1213   -45010.456    352.71891    224296.58 
  101000     307.0727   -62905.766    7297.0942   -45094.329    331.64964    224358.06 
  102000    305.04745   -62833.701     7567.143   -44821.561   -185.65232    223902.34 
  102000    303.21722   -63000.327    7458.7321   -45159.266    51.603186    224705.49 
  101000    302.21692   -62945.497    7563.3611   -45034.058   -46.903471       223764 
  102000    303.87826    -63154.88     7669.295   -45080.621    216.35234    223786.94 
  102000    305.27668   -62914.101    7541.2061   -44920.048   -40.493589    224418.47 
  103000    302.60661   -62870.579    7534.9799   -44974.178   -2.1916109    224177.37 
  103000    304.72325   -63174.521    7562.0941    -45178.53    -367.7029    223846.24 
  102000    305.98448   -62890.787    7578.4898   -44835.215    54.613074     223728.3 
  103000     304.7977   -62935.507     7562.665   -44936.397    -183.2933    224596.89 
  103000    303.21352   -63071.301    7528.6955   -45160.404   -25.053265    223528.57 
  104000    301.66161   -62988.004    7544.9825   -45113.957    244.69281    224117.35 
  104000    301.32855   -62910.387    7536.8508   -45055.876    100.18369    224652.62 
  103000    303.81841   -62807.696    7511.0693   -44893.712    69.101958    223716.09 
  104000    302.41498   -62887.598    7405.7268   -45127.011   -336.24073    224239.33 
  104000    303.95899   -62956.521    7489.1099   -45059.684    307.80201    223783.48 
  105000    304.03882   -62867.276    7547.6363   -44909.179    163.07178    223803.53 
  105000    299.33495   -62914.644    7501.0381   -45164.208    144.51793    224503.09 
  104000    302.51325   -62925.614    7717.1196    -44850.27    165.25062    223902.44 
  105000    308.66739   -62911.031    7570.0287   -44772.056    -144.3818    224164.13 
  105000    303.38635   -62800.914     7562.615   -44850.179     204.2958    223826.72 
  106000    303.50347   -62748.154    7596.1542   -44759.869     80.34652    224182.67 
  106000    306.29124   -62821.452    7530.2443   -44803.623     423.8107    224267.09 
  105000     306.6983   -63038.474    7552.5671   -44984.384    249.50625    224984.45 
  106000    305.17599   -62915.209    7544.2349   -44921.575    222.18526    224370.53 
  106000    304.07417   -62867.134    7441.9259   -45013.537   -35.928111    223989.98 
  107000    301.72887   -63027.796    7513.4422   -45182.987    165.69739    223532.37 
  107000     304.8278   -62903.352     7533.374   -44932.502    348.86731     224275.9 
  106000    303.46497   -62915.651     7467.919    -45056.92    407.51402    224570.45 
  107000     305.9761   -62803.548    7507.9768   -44818.777    292.69303    223468.88 
  107000    306.11739   -62832.301    7622.3613   -44728.307    76.442952    224443.91 
  108000    306.65466   -62948.482    7529.0886   -44919.364     61.36411    224334.08 
  108000    302.59352   -62881.491    7524.0402   -44996.478   -238.17231    224670.03 
  107000      304.952   -62913.746    7523.1314   -44948.886    296.31421    224417.33 
  108000    301.27207   -62971.436     7548.707   -45107.003   -476.43528    224369.95 
  108000     303.0393   -63099.064    7654.9437   -45067.883    126.83657    224092.47 
  109000    302.75966   -62974.602     7598.858   -45009.082   -217.62139    223995.35 
  109000    307.62714   -62887.099    7433.1727   -44920.599    147.67229    224092.31 
  108000    305.98209   -62768.516     7523.622   -44767.895    14.469121    223744.11 
  109000    304.15111   -62898.379    7555.5605   -44928.512   -411.25451    224010.42 
  109000     308.7365   -62922.296    7553.3092   -44797.675   -148.63021    224540.37 
SHAKE stats (type/ave/delta) on step 110000
  53 0.999999 1.68652e-05 15360
  55 109.5 0.00174535
  110000    305.07135   -62833.639    7488.2706   -44899.553   -56.665153    225272.79 
SHAKE stats (type/ave/delta) on step 110000
  53 1 1.27292e-05 15360
  55 109.5 0.00129105
  110000    306.65796   -62861.062    7567.0958   -44793.824   -295.50566    224842.57 
  109000    301.86636    -62854.21    7506.4892   -45011.646    -199.2602     224371.6 
SHAKE stats (type/ave/delta) on step 110000
  53 0.999997 1.45068e-06 15360
  55 109.5 0.000142991
  110000      308.083     -62890.3    7438.4516   -44902.913   -123.80706    224316.02 
SHAKE stats (type/ave/delta) on step 110000
  53 0.999994 2.45204e-06 15360
  55 109.5 0.000211928
  110000    302.35903   -62900.768    7537.3485   -45010.476   -510.29379    223808.52 
  111000     305.1148   -62913.423    7582.4973   -44883.622    101.27882    224103.42 
  111000    301.89085   -62890.561     7647.589   -44906.058   -179.34681    224794.13 
SHAKE stats (type/ave/delta) on step 110000
  53 0.999997 3.7859e-06 15360
  55 109.5 0.000377325
  110000    301.55965   -62827.163    7525.4274   -44976.162    320.29793    224227.84 
  111000    304.77293   -63076.791    7497.9546   -45143.239    -357.3352    224075.81 
  111000    305.84565   -62864.311    7650.9767   -44741.006    249.36202    223862.07 
  112000    303.27574   -62928.916    7571.7308   -44972.853    119.19428    224300.07 
  111000    305.08207   -62931.713    7370.2296   -45115.301    321.25778    223245.71 
  112000    305.30055   -63034.171    7699.6517   -44880.856   -362.79291    224301.85 
  112000    305.41717   -62827.586    7546.7278   -44823.202   -186.75116     223884.2 
  112000    303.95111   -62912.293    7527.3603   -44977.475   -371.12843    224426.16 
  113000    302.45119   -62978.589    7487.4029   -45135.086   -402.29778    224532.57 
  112000     303.2635   -62983.946    7503.5491   -45096.484   -217.41353     224706.2 
  113000    307.43644   -63005.081    7582.9833   -44895.301    143.48992    224263.88 
  113000    306.75907   -63017.179    7633.3808   -44880.194    -110.3461    223531.19 
  113000    306.97979   -62904.275    7490.2985   -44902.815   -74.508253    224082.59 
  114000    306.58614   -62864.329     7560.944   -44805.702    149.07333    223754.52 
  113000    305.91467   -62865.825    7570.2629   -44820.871   -176.33785    224264.21 
  114000    299.26162   -62888.328    7480.5013   -45160.939   -228.72153    224202.74 
  114000    307.62314   -62884.578    7395.5759   -44955.812    133.26425    223577.77 
  114000    303.37327   -63039.336    7574.8235   -45076.841   -323.08517    223592.15 
  115000    305.02172   -62944.071    7606.7656    -44893.19   -51.408768    224299.47 
  114000    302.79778   -62876.877    7538.4624   -44970.448   -185.25172    224721.33 
  115000    303.93251   -63057.376    7566.2906   -45084.265   -94.605415    223873.72 
  115000    302.72733   -62954.594    7505.7184   -45083.321   -413.85392    223892.71 
  115000    307.24892   -63089.589    7491.1606   -45078.052   -487.27653    223785.96 
  116000    301.81176   -62910.351    7536.9362    -45039.21   -57.290369    225094.84 
  115000    302.81798   -62832.033    7432.7815   -45030.592    264.97411    223599.26 
  116000     306.3377   -62748.997    7456.1852   -44803.636    35.159727    224005.46 
  116000    300.03256   -62956.994     7614.585   -45069.124   -468.09278    223553.09 
  116000    304.22997   -62994.707    7544.0763   -45033.624   -266.13999    223092.33 
  117000    307.85085    -62791.35    7585.8077   -44664.556   -329.63661    224189.87 
  116000    305.33113   -62760.571    7557.3105    -44748.55    199.53259    223987.27 
  117000    303.49346   -62878.787     7599.317   -44887.682      588.082    224124.81 
  117000    304.41219    -62939.46    7530.8067   -44985.407   -311.58579    223961.03 
  117000    303.44508   -63011.534    7506.2168   -45115.186   -188.87226    223771.25 
  118000    302.65186   -62872.721    7534.8898    -44974.86    366.05976    224624.86 
  117000    309.76683   -62849.281    7598.0359   -44644.654    210.58289    224708.83 
  118000    302.37574   -62881.229    7516.6561   -45011.056    42.109086    224402.48 
  118000    302.69799   -63044.914    7488.8196   -45191.545   -775.46097     224247.1 
[...]


--------------------------------------------------------------------------
- Using acceleration for pppm:
-  with 16 proc(s) per device.
--------------------------------------------------------------------------
Device 0: Tesla K20X, 14 CUs, 5.2/5.6 GB, 0.73 GHZ (Mixed Precision)
--------------------------------------------------------------------------

Initializing Device and compiling on process 0...Done.
Initializing Device 0 on core 0...Done.
Initializing Device 0 on core 1...Done.
Initializing Device 0 on core 2...Done.
Initializing Device 0 on core 3...Done.
Initializing Device 0 on core 4...Done.
Initializing Device 0 on core 5...Done.
Initializing Device 0 on core 6...Done.
Initializing Device 0 on core 7...Done.
Initializing Device 0 on core 8...Done.
Initializing Device 0 on core 9...Done.
Initializing Device 0 on core 10...Done.
Initializing Device 0 on core 11...Done.
Initializing Device 0 on core 12...Done.
Initializing Device 0 on core 13...Done.
Initializing Device 0 on core 14...Done.
Initializing Device 0 on core 15...Done.



---------------------------------------------------------------------
      Device Time Info (average): 
---------------------------------------------------------------------
Neighbor (CPU):  6.3911 s.
Device Overhead: 270.5206 s.
Average split:   1.0000.
Threads / atom:  8.
Max Mem / Proc:  21.46 MB.
CPU Driver_Time: 235.4495 s.
CPU Idle_Time:   14.2991 s.
---------------------------------------------------------------------


--------------------------------------------------------------------------
- Using acceleration for lj/cut/coul/long:
-  with 16 proc(s) per device.
--------------------------------------------------------------------------
Device 0: Tesla K20X, 14 CUs, 5.3/5.6 GB, 0.73 GHZ (Mixed Precision)
--------------------------------------------------------------------------

Initializing Device and compiling on process 0...Done.
Initializing Device 0 on core 0...Done.
Initializing Device 0 on core 1...Done.
Initializing Device 0 on core 2...Done.
Initializing Device 0 on core 3...Done.
Initializing Device 0 on core 4...Done.
Initializing Device 0 on core 5...Done.
Initializing Device 0 on core 6...Done.
Initializing Device 0 on core 7...Done.
Initializing Device 0 on core 8...Done.
Initializing Device 0 on core 9...Done.
Initializing Device 0 on core 10...Done.
Initializing Device 0 on core 11...Done.
Initializing Device 0 on core 12...Done.
Initializing Device 0 on core 13...Done.
Initializing Device 0 on core 14...Done.
Initializing Device 0 on core 15...Done.

WARNING: Fix recenter should come after all other integration fixes (../fix_recenter.cpp:132)
WARNING: Fix recenter should come after all other integration fixes (../fix_recenter.cpp:132)
WARNING: Fix recenter should come after all other integration fixes (../fix_recenter.cpp:132)
WARNING: Fix recenter should come after all other integration fixes (../fix_recenter.cpp:132)
WARNING: Fix recenter should come after all other integration fixes (../fix_recenter.cpp:132)
WARNING: Fix recenter should come after all other integration fixes (../fix_recenter.cpp:132)

Please see the log.cite file for references relevant to this simulation

Total wall time: 1:20:19
Application 12504100 network throttled: 1 node throttled, 00:08:14 node-seconds
Application 12504100 balanced injection 100, after throttle 100
Application 12504100 resources: utime ~70509s, stime ~2424s, Rss ~36172, inblocks ~14303, outblocks ~24371147
SHAKE stats (type/ave/delta) on step 380000
  53 1 5.20955e-06 15360
  55 109.5 0.000524028
  380000    306.38388   -62891.551    7624.2346   -44776.559   -300.49798    223967.39 
Loop time of 4820.61 on 16 procs for 380000 steps with 14048 atoms

Performance: 6.811 ns/day, 3.524 hours/ns, 78.828 timesteps/s
91.5% CPU use with 16 MPI tasks x no OpenMP threads

MPI task timing breakdown:
Section |  min time  |  avg time  |  max time  |%varavg| %total
---------------------------------------------------------------
Pair    | 368.38     | 390.99     | 411.04     |  69.7 |  8.11
Bond    | 123.71     | 200.22     | 266.74     | 344.1 |  4.15
Kspace  | 2362.5     | 2420.6     | 2500.4     |  92.0 | 50.21
Neigh   | 8.4234     | 12.787     | 17.988     |  95.6 |  0.27
Comm    | 502.69     | 563.75     | 629.03     | 228.6 | 11.69
Output  | 0.17002    | 0.17119    | 0.1756     |   0.3 |  0.00
Modify  | 1137.8     | 1183.3     | 1228.1     | 114.5 | 24.55
Other   |            | 48.8       |            |       |  1.01

Nlocal:    878 ave 1248 max 514 min
Histogram: 8 0 0 0 0 0 0 0 3 5
Nghost:    10318.4 ave 12019 max 8674 min
Histogram: 8 0 0 0 0 0 0 0 0 8
Neighs:    0 ave 0 max 0 min
Histogram: 16 0 0 0 0 0 0 0 0 0

Total # of neighbors = 0
Ave neighs/atom = 0
Ave special neighs/atom = 2.99544
Neighbor list builds = 19576
Dangerous builds = 0
System init for write_restart ...
PPPM initialization ...
  G vector (1/distance) = 0.180423
  grid = 18 18 24
  stencil order = 5
  estimated absolute RMS force accuracy = 0.0279375
  estimated relative force accuracy = 8.41329e-05
  using double precision FFTs
  3d grid and FFT values/proc = 2156 648


---------------------------------------------------------------------
    Device Time Info (average): 
---------------------------------------------------------------------
CPU Poisson:     1442.3877 s.
CPU Idle Time:   882.3249 s.
Max Mem / Proc:  0.81 MB.
---------------------------------------------------------------------


--------------------------------------------------------------------------
- Using acceleration for pppm:
-  with 16 proc(s) per device.
--------------------------------------------------------------------------
Device 0: Tesla K20X, 14 CUs, 5.2/5.6 GB, 0.73 GHZ (Mixed Precision)
--------------------------------------------------------------------------

Initializing Device and compiling on process 0...Done.
Initializing Device 0 on core 0...Done.
Initializing Device 0 on core 1...Done.
Initializing Device 0 on core 2...Done.
Initializing Device 0 on core 3...Done.
Initializing Device 0 on core 4...Done.
Initializing Device 0 on core 5...Done.
Initializing Device 0 on core 6...Done.
Initializing Device 0 on core 7...Done.
Initializing Device 0 on core 8...Done.
Initializing Device 0 on core 9...Done.
Initializing Device 0 on core 10...Done.
Initializing Device 0 on core 11...Done.
Initializing Device 0 on core 12...Done.
Initializing Device 0 on core 13...Done.
Initializing Device 0 on core 14...Done.
Initializing Device 0 on core 15...Done.



---------------------------------------------------------------------
      Device Time Info (average): 
---------------------------------------------------------------------
Neighbor (CPU):  6.3173 s.
Device Overhead: 265.4803 s.
Average split:   1.0000.
Threads / atom:  8.
Max Mem / Proc:  20.53 MB.
CPU Driver_Time: 226.6885 s.
CPU Idle_Time:   13.2029 s.
---------------------------------------------------------------------


--------------------------------------------------------------------------
- Using acceleration for lj/cut/coul/long:
-  with 16 proc(s) per device.
--------------------------------------------------------------------------
Device 0: Tesla K20X, 14 CUs, 5.4/5.6 GB, 0.73 GHZ (Mixed Precision)
--------------------------------------------------------------------------

Initializing Device and compiling on process 0...Done.
Initializing Device 0 on core 0...Done.
Initializing Device 0 on core 1...Done.
Initializing Device 0 on core 2...Done.
Initializing Device 0 on core 3...Done.
Initializing Device 0 on core 4...Done.
Initializing Device 0 on core 5...Done.
Initializing Device 0 on core 6...Done.
Initializing Device 0 on core 7...Done.
Initializing Device 0 on core 8...Done.
Initializing Device 0 on core 9...Done.
Initializing Device 0 on core 10...Done.
Initializing Device 0 on core 11...Done.
Initializing Device 0 on core 12...Done.
Initializing Device 0 on core 13...Done.
Initializing Device 0 on core 14...Done.
Initializing Device 0 on core 15...Done.

WARNING: Fix recenter should come after all other integration fixes (../fix_recenter.cpp:132)
WARNING: Fix recenter should come after all other integration fixes (../fix_recenter.cpp:132)
WARNING: Fix recenter should come after all other integration fixes (../fix_recenter.cpp:132)
WARNING: Fix recenter should come after all other integration fixes (../fix_recenter.cpp:132)
WARNING: Fix recenter should come after all other integration fixes (../fix_recenter.cpp:132)
WARNING: Fix recenter should come after all other integration fixes (../fix_recenter.cpp:132)

Please see the log.cite file for references relevant to this simulation

Total wall time: 1:20:23
Application 12504096 network throttled: 1 node throttled, 00:08:12 node-seconds
Application 12504096 balanced injection 100, after throttle 100
Application 12504096 resources: utime ~70575s, stime ~2388s, Rss ~35984, inblocks ~14295, outblocks ~24371742
  379000    305.06632   -62926.957    7487.6934    -44993.62    83.372954    224713.82 
SHAKE stats (type/ave/delta) on step 380000
  53 1 1.09652e-05 15360
  55 109.5 0.00115365
  380000    302.88047    -62787.71    7535.0721    -44881.84    190.95268    224243.04 
Loop time of 4827.45 on 16 procs for 380000 steps with 14048 atoms

Performance: 6.801 ns/day, 3.529 hours/ns, 78.717 timesteps/s
91.3% CPU use with 16 MPI tasks x no OpenMP threads

MPI task timing breakdown:
Section |  min time  |  avg time  |  max time  |%varavg| %total
---------------------------------------------------------------
Pair    | 371.41     | 393.54     | 412.79     |  69.8 |  8.15
Bond    | 117.44     | 200.66     | 272.99     | 343.5 |  4.16
Kspace  | 2355.9     | 2413.3     | 2491.1     |  88.1 | 49.99
Neigh   | 8.7597     | 13.172     | 18.521     |  94.9 |  0.27
Comm    | 504.49     | 564.8      | 629.69     | 228.8 | 11.70
Output  | 0.17634    | 0.17812    | 0.19225    |   0.9 |  0.00
Modify  | 1148.3     | 1192.7     | 1235.1     | 113.3 | 24.71
Other   |            | 49.07      |            |       |  1.02

Nlocal:    878 ave 1254 max 516 min
Histogram: 7 1 0 0 0 0 0 0 2 6
Nghost:    10341.4 ave 12000 max 8667 min
Histogram: 8 0 0 0 0 0 0 0 0 8
Neighs:    0 ave 0 max 0 min
Histogram: 16 0 0 0 0 0 0 0 0 0

Total # of neighbors = 0
Ave neighs/atom = 0
Ave special neighs/atom = 2.99544
Neighbor list builds = 19571
Dangerous builds = 0
System init for write_restart ...
PPPM initialization ...
  G vector (1/distance) = 0.18047
  grid = 18 18 24
  stencil order = 5
  estimated absolute RMS force accuracy = 0.0278288
  estimated relative force accuracy = 8.38057e-05
  using double precision FFTs
  3d grid and FFT values/proc = 2156 648


---------------------------------------------------------------------
    Device Time Info (average): 
---------------------------------------------------------------------
CPU Poisson:     1453.1259 s.
CPU Idle Time:   865.3678 s.
Max Mem / Proc:  0.81 MB.
---------------------------------------------------------------------


--------------------------------------------------------------------------
- Using acceleration for pppm:
-  with 16 proc(s) per device.
--------------------------------------------------------------------------
Device 0: Tesla K20X, 14 CUs, 5.2/5.6 GB, 0.73 GHZ (Mixed Precision)
--------------------------------------------------------------------------

Initializing Device and compiling on process 0...Done.
Initializing Device 0 on core 0...Done.
Initializing Device 0 on core 1...Done.
Initializing Device 0 on core 2...Done.
Initializing Device 0 on core 3...Done.
Initializing Device 0 on core 4...Done.
Initializing Device 0 on core 5...Done.
Initializing Device 0 on core 6...Done.
Initializing Device 0 on core 7...Done.
Initializing Device 0 on core 8...Done.
Initializing Device 0 on core 9...Done.
Initializing Device 0 on core 10...Done.
Initializing Device 0 on core 11...Done.
Initializing Device 0 on core 12...Done.
Initializing Device 0 on core 13...Done.
Initializing Device 0 on core 14...Done.
Initializing Device 0 on core 15...Done.



---------------------------------------------------------------------
      Device Time Info (average): 
---------------------------------------------------------------------
Neighbor (CPU):  6.3781 s.
Device Overhead: 256.8369 s.
Average split:   1.0000.
Threads / atom:  8.
Max Mem / Proc:  20.97 MB.
CPU Driver_Time: 226.8516 s.
CPU Idle_Time:   14.1352 s.
---------------------------------------------------------------------


--------------------------------------------------------------------------
- Using acceleration for lj/cut/coul/long:
-  with 16 proc(s) per device.
--------------------------------------------------------------------------
Device 0: Tesla K20X, 14 CUs, 5.4/5.6 GB, 0.73 GHZ (Mixed Precision)
--------------------------------------------------------------------------

Initializing Device and compiling on process 0...Done.
Initializing Device 0 on core 0...Done.
Initializing Device 0 on core 1...Done.
Initializing Device 0 on core 2...Done.
Initializing Device 0 on core 3...Done.
Initializing Device 0 on core 4...Done.
Initializing Device 0 on core 5...Done.
Initializing Device 0 on core 6...Done.
Initializing Device 0 on core 7...Done.
Initializing Device 0 on core 8...Done.
Initializing Device 0 on core 9...Done.
Initializing Device 0 on core 10...Done.
Initializing Device 0 on core 11...Done.
Initializing Device 0 on core 12...Done.
Initializing Device 0 on core 13...Done.
Initializing Device 0 on core 14...Done.
Initializing Device 0 on core 15...Done.

WARNING: Fix recenter should come after all other integration fixes (../fix_recenter.cpp:132)
WARNING: Fix recenter should come after all other integration fixes (../fix_recenter.cpp:132)
WARNING: Fix recenter should come after all other integration fixes (../fix_recenter.cpp:132)
WARNING: Fix recenter should come after all other integration fixes (../fix_recenter.cpp:132)
WARNING: Fix recenter should come after all other integration fixes (../fix_recenter.cpp:132)
WARNING: Fix recenter should come after all other integration fixes (../fix_recenter.cpp:132)

Please see the log.cite file for references relevant to this simulation

Total wall time: 1:20:30
Application 12504099 network throttled: 1 node throttled, 00:08:13 node-seconds
Application 12504099 balanced injection 100, after throttle 100
Application 12504099 resources: utime ~70539s, stime ~2590s, Rss ~35932, inblocks ~14293, outblocks ~24371346
SHAKE stats (type/ave/delta) on step 380000
  53 1.00001 8.23243e-06 15360
  55 109.5 0.000860635
  380000    302.50583   -62795.813    7530.2987   -44907.543    362.16127    224371.74 
Loop time of 4839.14 on 16 procs for 380000 steps with 14048 atoms

Performance: 6.785 ns/day, 3.537 hours/ns, 78.526 timesteps/s
91.7% CPU use with 16 MPI tasks x no OpenMP threads

MPI task timing breakdown:
Section |  min time  |  avg time  |  max time  |%varavg| %total
---------------------------------------------------------------
Pair    | 371.47     | 394.82     | 414.94     |  73.1 |  8.16
Bond    | 116.15     | 196.88     | 262.23     | 346.5 |  4.07
Kspace  | 2335       | 2394.1     | 2473.9     |  90.9 | 49.47
Neigh   | 7.8737     | 12.398     | 17.754     |  97.6 |  0.26
Comm    | 503.32     | 563.9      | 627.58     | 229.4 | 11.65
Output  | 0.16719    | 0.16836    | 0.1728     |   0.3 |  0.00
Modify  | 1186.2     | 1228.4     | 1270.8     | 111.4 | 25.39
Other   |            | 48.49      |            |       |  1.00

Nlocal:    878 ave 1256 max 522 min
Histogram: 7 1 0 0 0 0 0 0 3 5
Nghost:    10337.1 ave 11992 max 8707 min
Histogram: 8 0 0 0 0 0 0 0 0 8
Neighs:    0 ave 0 max 0 min
Histogram: 16 0 0 0 0 0 0 0 0 0

Total # of neighbors = 0
Ave neighs/atom = 0
Ave special neighs/atom = 2.99544
Neighbor list builds = 19588
Dangerous builds = 0
System init for write_restart ...
PPPM initialization ...
  G vector (1/distance) = 0.180539
  grid = 18 18 24
  stencil order = 5
  estimated absolute RMS force accuracy = 0.027684
  estimated relative force accuracy = 8.33696e-05
  using double precision FFTs
  3d grid and FFT values/proc = 2156 648


---------------------------------------------------------------------
    Device Time Info (average): 
---------------------------------------------------------------------
CPU Poisson:     1432.1647 s.
CPU Idle Time:   867.8857 s.
Max Mem / Proc:  0.81 MB.
---------------------------------------------------------------------


--------------------------------------------------------------------------
- Using acceleration for pppm:
-  with 16 proc(s) per device.
--------------------------------------------------------------------------
Device 0: Tesla K20X, 14 CUs, 5.2/5.6 GB, 0.73 GHZ (Mixed Precision)
--------------------------------------------------------------------------

Initializing Device and compiling on process 0...Done.
Initializing Device 0 on core 0...Done.
Initializing Device 0 on core 1...Done.
Initializing Device 0 on core 2...Done.
Initializing Device 0 on core 3...Done.
Initializing Device 0 on core 4...Done.
Initializing Device 0 on core 5...Done.
Initializing Device 0 on core 6...Done.
Initializing Device 0 on core 7...Done.
Initializing Device 0 on core 8...Done.
Initializing Device 0 on core 9...Done.
Initializing Device 0 on core 10...Done.
Initializing Device 0 on core 11...Done.
Initializing Device 0 on core 12...Done.
Initializing Device 0 on core 13...Done.
Initializing Device 0 on core 14...Done.
Initializing Device 0 on core 15...Done.



---------------------------------------------------------------------
      Device Time Info (average): 
---------------------------------------------------------------------
Neighbor (CPU):  6.2851 s.
Device Overhead: 263.6271 s.
Average split:   1.0000.
Threads / atom:  8.
Max Mem / Proc:  21.55 MB.
CPU Driver_Time: 230.5299 s.
CPU Idle_Time:   14.8269 s.
---------------------------------------------------------------------


--------------------------------------------------------------------------
- Using acceleration for lj/cut/coul/long:
-  with 16 proc(s) per device.
--------------------------------------------------------------------------
Device 0: Tesla K20X, 14 CUs, 5.4/5.6 GB, 0.73 GHZ (Mixed Precision)
--------------------------------------------------------------------------

Initializing Device and compiling on process 0...Done.
Initializing Device 0 on core 0...Done.
Initializing Device 0 on core 1...Done.
Initializing Device 0 on core 2...Done.
Initializing Device 0 on core 3...Done.
Initializing Device 0 on core 4...Done.
Initializing Device 0 on core 5...Done.
Initializing Device 0 on core 6...Done.
Initializing Device 0 on core 7...Done.
Initializing Device 0 on core 8...Done.
Initializing Device 0 on core 9...Done.
Initializing Device 0 on core 10...Done.
Initializing Device 0 on core 11...Done.
Initializing Device 0 on core 12...Done.
Initializing Device 0 on core 13...Done.
Initializing Device 0 on core 14...Done.
Initializing Device 0 on core 15...Done.

WARNING: Fix recenter should come after all other integration fixes (../fix_recenter.cpp:132)
WARNING: Fix recenter should come after all other integration fixes (../fix_recenter.cpp:132)
WARNING: Fix recenter should come after all other integration fixes (../fix_recenter.cpp:132)
WARNING: Fix recenter should come after all other integration fixes (../fix_recenter.cpp:132)
WARNING: Fix recenter should come after all other integration fixes (../fix_recenter.cpp:132)
WARNING: Fix recenter should come after all other integration fixes (../fix_recenter.cpp:132)

Please see the log.cite file for references relevant to this simulation

Total wall time: 1:20:41
Application 12504098 network throttled: 1 node throttled, 00:08:12 node-seconds
Application 12504098 balanced injection 100, after throttle 100
Application 12504098 resources: utime ~70983s, stime ~2402s, Rss ~35828, inblocks ~14298, outblocks ~24371804
