LAMMPS (5 Oct 2015)
LAMMPS (5 Oct 2015)
LAMMPS (5 Oct 2015)
LAMMPS (5 Oct 2015)
LAMMPS (5 Oct 2015)
Reading restart file ...
Rank 0 [Thu Oct 27 15:22:33 2016] [c2-1c0s5n1] application called MPI_Abort(MPI_COMM_WORLD, 1) - process 0
_pmiu_daemon(SIGCHLD): [NID 00821] [c2-1c0s5n1] [Thu Oct 27 15:22:33 2016] PE RANK 0 exit signal Aborted
ERROR on proc 0: Cannot open restart file restartfile (../read_restart.cpp:140)
Reading restart file ...
ERROR on proc 0: Cannot open restart file restartfile (../read_restart.cpp:140)
Rank 0 [Thu Oct 27 15:22:33 2016] [c2-1c0s5n3] application called MPI_Abort(MPI_COMM_WORLD, 1) - process 0
Reading restart file ...
Rank 0 [Thu Oct 27 15:22:33 2016] [c4-1c0s6n2] application called MPI_Abort(MPI_COMM_WORLD, 1) - process 0
_pmiu_daemon(SIGCHLD): [NID 02258] [c4-1c0s6n2] [Thu Oct 27 15:22:33 2016] PE RANK 0 exit signal Aborted
ERROR on proc 0: Cannot open restart file restartfile (../read_restart.cpp:140)
_pmiu_daemon(SIGCHLD): [NID 00811] [c2-1c0s5n3] [Thu Oct 27 15:22:33 2016] PE RANK 0 exit signal Aborted
[NID 00811] 2016-10-27 15:22:33 Apid 12502928: initiated application termination
Reading restart file ...
Rank 0 [Thu Oct 27 15:22:33 2016] [c4-1c0s6n3] application called MPI_Abort(MPI_COMM_WORLD, 1) - process 0
ERROR on proc 0: Cannot open restart file restartfile (../read_restart.cpp:140)
Reading restart file ...
Rank 0 [Thu Oct 27 15:22:33 2016] [c2-1c0s7n0] application called MPI_Abort(MPI_COMM_WORLD, 1) - process 0
_pmiu_daemon(SIGCHLD): [NID 00816] [c2-1c0s7n0] [Thu Oct 27 15:22:33 2016] PE RANK 0 exit signal Aborted
ERROR on proc 0: Cannot open restart file restartfile (../read_restart.cpp:140)
[NID 00821] 2016-10-27 15:22:33 Apid 12502929: initiated application termination
_pmiu_daemon(SIGCHLD): [NID 02259] [c4-1c0s6n3] [Thu Oct 27 15:22:33 2016] PE RANK 0 exit signal Aborted
[NID 02259] 2016-10-27 15:22:33 Apid 12502925: initiated application termination
[NID 02258] 2016-10-27 15:22:33 Apid 12502926: initiated application termination
[NID 00816] 2016-10-27 15:22:33 Apid 12502927: initiated application termination
Application 12502926 exit codes: 134
Application 12502926 resources: utime ~1s, stime ~2s, Rss ~13300, inblocks ~8339, outblocks ~25299
Application 12502929 exit codes: 134
Application 12502929 resources: utime ~0s, stime ~2s, Rss ~13296, inblocks ~8342, outblocks ~25301
Application 12502925 exit codes: 134
Application 12502925 resources: utime ~1s, stime ~2s, Rss ~13300, inblocks ~8338, outblocks ~25299
Application 12502927 exit codes: 134
Application 12502927 resources: utime ~1s, stime ~2s, Rss ~13300, inblocks ~8332, outblocks ~25299
Application 12502928 exit codes: 134
Application 12502928 resources: utime ~1s, stime ~2s, Rss ~13296, inblocks ~8329, outblocks ~25298
