ITEM: TIMESTEP
0
ITEM: NUMBER OF ATOMS
21
ITEM: BOX BOUNDS pp pp pp
-26.0068 26.0068
-27.9911 27.9911
-38.4985 38.4985
ITEM: ATOMS id mass x y z vx vy vz fx fy fz 
12728 1.008 -12.6607 -4.04225 -35.7117 -0.00740632 -0.0144196 -0.0153145 -1.87544 -0.388462 -1.28399 
12726 15.994 -12.1557 -3.68809 -36.4988 -0.00315949 0.000394504 -0.00589452 3.7015 -5.99441 15.0399 
12727 1.008 -12.7657 -3.13353 -37.0648 -0.000322416 0.0103531 0.000791498 1.66289 -0.610744 -0.169074 
10346 1.008 -2.77978 -1.66536 32.4808 0.00794199 0.00127395 0.00668411 0.64415 0.262863 -1.1498 
10344 15.994 -3.08525 -0.748963 32.2222 0.00364632 -0.00398234 -0.00702072 -4.82068 2.21877 33.0287 
10345 1.008 -3.63593 -0.80332 31.3893 -0.000649868 -0.0196866 -0.0032023 1.04794 2.6838 1.99712 
11366 1.008 -12.0118 24.2681 -29.9465 0.0220114 0.00699435 0.0270024 -0.241003 2.47537 -4.46641 
11364 15.994 -12.0328 25.2317 -30.2127 0.000159836 -0.000840645 2.77013e-05 1.16572 2.36585 -5.86648 
11365 1.008 -12.9437 25.6062 -30.0392 -0.00426721 -0.012952 0.00293653 0.0910078 -0.122518 -2.02205 
12692 1.008 -4.36297 25.1644 -29.4387 -0.0203574 0.00924206 0.00611782 -2.26948 0.0456685 1.27169 
12691 1.008 -3.96869 25.584 -27.9102 -0.010679 -0.00801577 0.00835287 -5.32111 -2.24415 2.09919 
12690 15.994 -4.08961 24.8178 -28.5414 -0.000403733 0.000244753 -0.00349917 4.51794 -2.36547 -14.1375 
13585 1.008 -18.8169 9.0906 36.4745 0.00423257 -0.0162249 -0.0291075 1.18005 2.77567 -0.986955 
13586 1.008 -18.3843 9.95364 35.1571 -0.0258905 0.00797454 -0.0230995 -4.36961 -0.776534 -2.55052 
13584 15.994 -19.1399 9.72253 35.77 -0.00879543 0.00636021 -0.00286073 5.26483 2.82426 26.6655 
10497 15.994 5.43872 -4.31221 -35.031 -0.00548361 0.00215169 -0.00211598 -2.17824 -1.33302 2.19644 
10499 1.008 5.7023 -4.30368 -34.0664 0.00698489 -0.0140898 -0.00525724 -3.88758 5.81625 -0.404674 
10498 1.008 5.99274 -3.64908 -35.5343 0.00627366 -0.00824146 -0.002829 -0.727741 -3.17403 -3.59956 
13537 1.008 4.9939 8.91443 -25.865 0.00892525 0.0106713 -0.000988317 -7.15487 -4.83803 -5.21248 
13536 15.994 5.01927 9.22579 -26.815 -0.00707753 0.000798509 -0.00480827 8.15379 0.0843264 -30.5595 
13538 1.008 5.21959 10.2052 -26.84 0.013181 -0.00358239 -0.0190356 -3.30768 -1.0659 2.51144 
ITEM: TIMESTEP
1000
ITEM: NUMBER OF ATOMS
21
ITEM: BOX BOUNDS pp pp pp
-25.9475 25.9475
-28.0084 28.0084
-38.7504 38.7504
ITEM: ATOMS id mass x y z vx vy vz fx fy fz 
10346 1.008 -6.87892 -0.52176 -34.1103 0.00184964 -0.0162292 -0.00268591 1.11472 -0.962432 1.88157 
10344 15.994 -5.90951 -0.341244 -34.2766 -0.000968102 0.000660468 -0.000680614 -4.12181 4.02373 -7.92911 
12728 1.008 -12.3066 -3.87028 -34.0663 0.012571 -0.0228724 -0.00123182 0.254358 1.02989 1.017 
12726 15.994 -11.6642 -3.58811 -33.3537 -0.000222613 -0.000639575 0.00149776 -1.4779 0.912816 -8.47707 
12727 1.008 -11.7548 -2.60533 -33.1928 -0.0213834 -0.000302327 -0.0124687 -2.90424 -2.35677 2.9822 
10345 1.008 -5.75598 0.646063 -34.3173 -0.0189849 0.00327067 -0.00560891 -0.231989 -0.274755 8.04515 
11366 1.008 -11.5766 25.8494 -34.3033 0.00169893 0.00402275 -0.00782086 0.638891 0.99305 0.313272 
11364 15.994 -12.265 26.3789 -33.8075 0.00216253 -0.000657057 -0.00219282 -7.20204 -9.94924 4.19271 
11365 1.008 -12.9566 25.7607 -33.4341 -0.0139852 -0.00137827 -0.0332992 1.87046 1.24159 -0.269836 
12692 1.008 -4.50576 25.458 -33.7651 0.00260204 -0.000619548 -0.012167 -0.787642 3.37675 0.555989 
13584 15.994 -19.8132 10.3851 -34.2941 -0.000843914 -0.000551866 -0.00160361 -6.69215 -0.440391 -0.161311 
12691 1.008 -6.11816 25.1983 -33.785 0.000635475 0.00944377 0.0169321 1.33988 -0.965139 0.221478 
12690 15.994 -5.34571 25.5774 -34.2945 -0.00647573 0.00624059 0.00378497 1.16638 1.65777 3.21007 
13585 1.008 -20.6157 10.3602 -34.8902 0.0111019 0.0165501 -0.0184031 -0.250181 -0.0252197 2.6584 
13586 1.008 -19.0781 10.8915 -34.7449 0.00961157 0.00874563 0.025879 -2.5729 -1.67887 -0.287012 
10497 15.994 5.1143 -5.25557 -34.8043 0.00351638 0.00267809 0.00340174 7.92771 -4.23251 1.67174 
10499 1.008 5.30093 -4.58681 -34.0846 0.0137711 0.00321542 0.000249066 -1.82462 2.21688 -1.9887 
10498 1.008 5.37272 -4.87248 -35.6911 0.000756148 -0.00197075 0.000593464 -3.24053 -0.977086 -1.18858 
13537 1.008 7.2232 8.32564 -34.4928 0.01994 0.013587 -0.0055296 2.28484 2.31484 2.42692 
13536 15.994 6.69328 8.82989 -33.8109 0.0023181 -0.00533695 -0.00525727 1.3223 4.75829 -2.54068 
13538 1.008 6.42814 9.71869 -34.1847 -0.00783109 -0.00441584 0.00412866 -0.562247 -0.664796 -0.757685 
ITEM: TIMESTEP
2000
ITEM: NUMBER OF ATOMS
21
ITEM: BOX BOUNDS pp pp pp
-26.0655 26.0655
-27.9811 27.9811
-38.5083 38.5083
ITEM: ATOMS id mass x y z vx vy vz fx fy fz 
12728 1.008 -13.7668 -1.86291 -34.0924 0.00420629 0.0423493 -0.0130057 4.48172 -2.70049 3.27622 
12726 15.994 -13.1194 -1.78418 -33.3343 -0.0013249 -0.00478821 -0.00334329 2.1947 -7.37384 -11.2261 
12727 1.008 -12.2008 -1.62325 -33.6952 0.00623904 -0.0127143 0.0123626 -0.744358 0.204984 -0.205786 
10344 15.994 -6.93415 0.0859786 -33.9175 -0.0026371 0.0111918 0.00338094 1.19853 1.73757 8.15864 
13584 15.994 -20.1873 10.4607 -34.1877 -0.00155336 -0.00776274 -0.00196717 3.00715 8.02362 2.74254 
13585 1.008 -21.0446 10.104 -34.5589 0.00644728 -0.0190265 -0.00963687 0.357966 0.733421 1.18575 
13586 1.008 -19.7727 11.0871 -34.8479 -0.0110198 0.00868726 0.00767312 -1.14337 -1.23092 -0.657196 
10345 1.008 -7.58874 0.808583 -34.1396 -0.00388768 0.0103935 0.00442607 2.73296 -0.194766 -8.23111 
10346 1.008 -6.00666 0.4595 -33.9329 -0.00156887 0.00766378 -0.0177144 0.253122 -3.33364 -0.459801 
11366 1.008 -11.9765 24.2689 -34.5579 -0.00806081 -0.00366511 -0.0021055 2.46958 -1.92971 3.78023 
11364 15.994 -12.5328 24.7554 -33.8841 -0.00192123 4.18326e-06 0.000330072 5.98297 5.17197 3.43571 
11365 1.008 -13.4373 24.3324 -33.83 -0.0015081 0.000414863 0.0107383 -1.44357 4.13681 -5.36516 
12692 1.008 -3.9199 27.0619 -33.6469 0.0323854 -0.0127043 -0.00861424 1.59408 -6.70041 3.05 
12691 1.008 -4.07698 26.526 -35.1818 0.00408025 -0.013102 -0.00557928 -3.65912 4.55326 0.942022 
12690 15.994 -4.23029 26.3028 -34.2191 -0.00102296 -0.0025638 -0.00392217 -0.159985 1.57032 2.16566 
10497 15.994 4.29052 -5.3998 -34.3881 -0.00263653 -0.00252327 -0.00220152 5.79486 10.7104 -11.0401 
10499 1.008 5.2797 -5.27735 -34.469 -0.0054989 0.011926 -0.0153996 -0.490441 0.0976397 -0.37969 
10498 1.008 3.82209 -4.67885 -34.8988 -0.019935 -0.0152899 -0.00436949 1.19705 -1.2659 -1.99411 
13537 1.008 10.8875 9.71446 -33.7516 0.00569432 -0.00707539 -0.00112506 -3.26016 -1.44521 -4.75558 
13536 15.994 10.0444 10.1857 -33.4925 0.00922592 -0.00354083 0.003922 -7.71231 6.32212 6.86959 
13538 1.008 10.037 11.1015 -33.8941 0.00646777 -0.00683484 -0.00357726 -0.0542062 1.2901 2.90873 
ITEM: TIMESTEP
3000
ITEM: NUMBER OF ATOMS
21
ITEM: BOX BOUNDS pp pp pp
-25.9741 25.9741
-27.9338 27.9338
-38.6007 38.6007
ITEM: ATOMS id mass x y z vx vy vz fx fy fz 
12728 1.008 -15.9607 -2.13387 -33.797 -0.00363243 0.0254137 0.0125448 1.96952 -3.28271 0.820749 
12726 15.994 -15.0106 -2.01257 -33.5096 0.00430553 0.00250466 -0.00400478 -5.37932 9.57782 -6.66414 
12727 1.008 -14.4568 -1.73688 -34.2953 -0.00935886 0.0232582 -0.00639149 2.28756 -7.12366 0.639927 
10345 1.008 -6.73691 2.15516 -34.1037 -0.00386059 0.0288908 -0.00194862 0.323778 5.51389 1.166 
10344 15.994 -6.06264 2.25793 -33.3724 0.00574788 -0.00228623 -0.00649432 -0.990032 -3.93571 -19.8073 
10346 1.008 -5.16588 2.45215 -33.77 -0.0019549 0.0271986 -0.00948737 0.849689 -2.54801 5.38018 
13584 15.994 -18.0398 11.387 -33.3061 0.0077328 0.000792997 -0.00335818 -8.14602 4.00764 -4.14939 
13585 1.008 -18.4716 11.5678 -34.1898 0.0121385 -0.0426697 -0.0143503 3.61528 -3.97526 2.39136 
13586 1.008 -18.4883 11.932 -32.5977 -0.0281349 -0.00159142 -0.0242206 4.19066 1.30111 -3.9692 
11366 1.008 -11.3954 24.4405 -33.7454 -0.0152386 -0.0148578 0.0193989 -2.69784 -0.148434 -0.58315 
11364 15.994 -12.1951 25.0062 -33.9468 0.00222881 0.00286064 -0.000101041 0.637218 -4.49272 2.0149 
11365 1.008 -12.9605 24.4198 -34.2118 -0.0149393 0.0175296 0.0170934 -0.257498 5.0833 -3.54786 
12692 1.008 -4.49117 26.3215 -33.6525 -0.00702413 0.00613898 -0.00258157 -0.531007 -1.12101 0.624577 
12691 1.008 -5.06019 25.5051 -34.9476 -5.38546e-05 0.00444332 -0.00455103 -1.08948 0.218486 0.129094 
12690 15.994 -4.97114 25.4968 -33.9516 0.00238524 0.00148574 -0.00480644 -5.69063 -10.5596 0.322316 
10497 15.994 4.3057 -6.75952 -33.4469 0.000956985 -0.00377213 0.00759407 4.92772 -2.13771 5.15613 
10499 1.008 5.26497 -6.64511 -33.7053 0.0016108 -0.0220773 0.00197989 -2.68703 0.313255 -7.15816 
10498 1.008 4.06881 -7.73091 -33.4646 -0.0175074 0.000713852 0.00964662 -1.77129 1.41991 -7.06218 
13537 1.008 10.1261 9.52079 -34.7565 0.0055884 -0.000838819 0.00355946 0.634292 0.636797 0.718825 
13536 15.994 9.43951 9.67617 -34.0463 0.000523182 0.00252882 -0.00209143 -2.74489 2.35323 -2.9999 
13538 1.008 9.09858 10.614 -34.111 -0.00854953 -0.00182138 -0.0173137 2.72209 0.489239 1.9149 
ITEM: TIMESTEP
4000
ITEM: NUMBER OF ATOMS
21
ITEM: BOX BOUNDS pp pp pp
-25.9331 25.9331
-27.9721 27.9721
-38.5166 38.5166
ITEM: ATOMS id mass x y z vx vy vz fx fy fz 
12728 1.008 -16.1643 -1.35147 -34.2576 0.000564301 0.00176249 -7.84949e-05 -3.20071 5.52959 -1.75297 
12726 15.994 -15.5012 -0.622319 -34.0886 0.00135115 0.00146226 -0.00184021 24.611 10.1669 9.59856 
12727 1.008 -15.1224 -0.307294 -34.9588 0.00778651 -0.00674358 -0.00201161 1.34059 2.9933 1.66787 
10345 1.008 -5.80301 3.06889 -35.1026 0.00910621 -0.0103613 -0.00702257 -2.07779 0.587389 2.11422 
10344 15.994 -5.5418 2.59187 -34.2634 0.0010136 0.00213954 0.00261379 0.0596661 -4.12006 1.25492 
10346 1.008 -5.07813 1.73693 -34.4959 0.00215989 -0.0019435 0.0198349 -0.148945 1.17647 -2.24247 
13584 15.994 -18.8 11.235 -33.1524 0.000893729 0.00307938 0.000386461 -10.2356 4.59651 -2.89269 
13585 1.008 -19.6252 10.6973 -33.325 0.00187221 0.00770535 -0.0186794 -1.04208 3.04115 -1.46171 
13586 1.008 -18.9738 12.1941 -33.3755 -0.0046697 0.0127466 0.0462411 1.08707 -4.69748 1.08798 
11366 1.008 -11.6568 23.7708 -34.23 -0.0075639 -0.0124832 0.00375791 -1.08392 -1.43445 1.2259 
11364 15.994 -12.404 24.424 -34.107 -0.00151042 -0.00527769 0.00225497 11.6204 8.34827 0.973122 
11365 1.008 -13.0583 24.3279 -34.8572 -0.00534774 -0.00487888 0.00556114 -2.45732 -2.7815 3.35502 
12692 1.008 -3.74412 25.4784 -33.2594 0.011965 -0.0237382 0.007104 4.68561 2.29713 -1.9349 
12691 1.008 -3.07422 25.7712 -34.7199 -0.0268506 0.0254533 -0.000818901 -3.79922 -2.37401 -0.175271 
12690 15.994 -3.80873 25.2918 -34.2397 -0.00307784 -0.00549862 0.0046311 -0.266501 0.254362 3.21208 
10497 15.994 3.08179 -7.1001 -34.6651 0.00324099 -0.00522683 -0.00117588 12.4674 4.44888 -3.26444 
10499 1.008 3.76364 -7.45093 -34.0233 0.0124966 0.00679858 -0.00438796 -6.62335 -5.69201 3.4792 
10498 1.008 3.09855 -7.6472 -35.502 0.0129467 -0.00142627 -0.00349246 -6.75472 -5.23483 3.59052 
13537 1.008 9.30512 9.43527 -33.4984 -0.00259275 -0.00250909 0.0167671 -1.04779 2.1358 -4.32172 
13536 15.994 8.66049 10.0916 -33.1064 -0.00510611 0.00645102 -0.00230554 7.27424 -6.04096 -6.43559 
13538 1.008 8.90647 11.016 -33.3981 0.00965753 0.00194702 -0.00421915 -4.86965 0.0597976 -1.49151 
ITEM: TIMESTEP
5000
ITEM: NUMBER OF ATOMS
21
ITEM: BOX BOUNDS pp pp pp
-26.0248 26.0248
-28.0122 28.0122
-38.3416 38.3416
ITEM: ATOMS id mass x y z vx vy vz fx fy fz 
12726 15.994 -15.3897 -0.752845 -34.1888 -0.000146043 0.000196983 -0.000332543 -6.70308 0.787741 4.8898 
12727 1.008 -15.4856 -0.453976 -35.1383 -0.0228802 -0.00133345 0.0014571 3.48032 -3.9702 -0.0212836 
12728 1.008 -16.2825 -1.03164 -33.8349 0.00943655 -0.0055005 0.0194131 -0.458887 0.270779 -3.11356 
10345 1.008 -4.00413 0.421458 -34.4516 0.00716198 0.0400416 -0.00888386 -3.84828 0.956088 0.788791 
10344 15.994 -4.74678 0.579559 -33.8009 0.00547852 0.00123127 -0.00137239 4.19817 1.56679 -1.7211 
10346 1.008 -5.62476 0.523213 -34.2763 0.0045269 -0.0226379 0.00320147 2.02913 -0.171422 -0.336489 
13584 15.994 -19.633 10.6639 -33.8693 -0.00577515 0.00169754 -0.00171209 5.0127 2.67536 -0.343318 
13585 1.008 -20.4467 10.0882 -33.9498 -0.0123046 0.0107373 -0.000511697 1.69809 -1.1773 -0.598544 
13586 1.008 -19.8529 11.5952 -34.1597 0.00563776 0.00281203 -0.0068278 -1.71256 -0.202128 1.63641 
11366 1.008 -11.0073 23.3851 -33.8827 0.00164415 0.00535655 0.00356738 -4.15989 -5.03188 6.83215 
11364 15.994 -11.7034 24.0847 -33.7214 -6.61182e-05 0.00253545 0.00854427 5.73445 14.6648 -1.4195 
11365 1.008 -12.4341 23.9905 -34.3975 -0.0132338 -0.0115927 0.0247834 -1.048 -3.63124 4.34417 
12692 1.008 -2.83972 25.1784 -31.735 0.0122773 -0.00672178 0.00623159 1.93748 3.54522 -2.26994 
12691 1.008 -1.92655 25.5948 -33.0236 -0.00384611 0.00157144 -0.00252435 -0.498601 -2.61413 -5.22296 
12690 15.994 -2.35816 24.833 -32.5405 -0.00573857 -0.000382181 -0.00726948 2.33255 3.95635 -4.56044 
10497 15.994 2.36665 -8.71162 -33.9998 -0.000161815 2.5175e-05 0.000516705 -11.4974 -3.80966 -1.58157 
10499 1.008 1.89797 -8.41834 -33.1665 -0.0152918 0.00636896 -0.0101904 6.13553 1.24776 2.1182 
10498 1.008 2.57481 -9.68786 -33.9397 -0.0146589 -0.00278727 0.00536969 3.48692 1.30686 0.720933 
13536 15.994 7.64838 9.78815 -34.4221 -0.00777339 -0.008944 0.0020142 9.61084 -3.15154 3.79446 
13537 1.008 8.28458 10.4915 -34.7392 -0.0275002 0.00696557 -0.00226611 -1.68426 0.637718 2.52265 
13538 1.008 7.52097 9.10475 -35.1409 -0.00690572 -0.00430437 -0.00255262 -0.671646 2.27374 -1.7381 
ITEM: TIMESTEP
6000
ITEM: NUMBER OF ATOMS
21
ITEM: BOX BOUNDS pp pp pp
-26.018 26.018
-28.038 28.038
-38.2408 38.2408
ITEM: ATOMS id mass x y z vx vy vz fx fy fz 
10346 1.008 -3.73713 -0.1811 -34.2391 0.0183082 0.00280671 0.0134097 -2.38298 0.18504 -0.736823 
12727 1.008 -15.2665 0.118089 -34.8538 -0.00342633 -0.00680799 -0.000826285 -1.96061 3.95118 -2.47909 
12728 1.008 -15.9058 1.42353 -34.109 0.00550294 0.00202543 -0.00863859 2.2616 2.96573 2.16015 
10345 1.008 -3.66685 1.38393 -34.7009 -0.00809727 -0.00125194 -0.00436598 -3.26217 -1.48824 -1.17066 
10344 15.994 -3.97375 0.75672 -33.9851 0.00856336 0.00238339 0.0059369 7.0757 2.65033 8.4176 
13584 15.994 -19.7708 10.5908 -33.7152 0.00108419 -0.00684316 0.00403705 -3.50187 -4.99503 -31.4773 
13585 1.008 -20.3865 9.96229 -34.1905 -0.017691 0.0154406 -0.00107008 -2.445 2.3513 1.8155 
13586 1.008 -20.0886 11.5302 -33.8434 0.0388202 0.00503586 -0.00263945 -0.469731 -3.66618 4.3565 
12726 15.994 -15.1191 0.807155 -34.1443 -0.00107705 -0.00677591 -0.00134535 -5.19911 6.88202 9.1119 
11366 1.008 -11.2335 22.7688 -34.0543 -0.00168728 -0.00720459 -0.000155281 -0.216088 -0.0651545 2.37207 
11364 15.994 -11.7401 23.6203 -33.9188 -0.0013786 -0.00802903 0.00621514 -3.93058 4.063 -7.97645 
11365 1.008 -12.2248 23.8579 -34.7605 0.0169208 0.0104063 0.000859262 -1.89156 -3.71511 1.33877 
12692 1.008 -4.67625 25.8606 -34.4215 -0.0147358 -0.00791235 0.0346461 5.29035 1.63899 -1.94828 
12691 1.008 -3.98597 27.117 -33.639 0.00528993 0.0039559 -0.00199023 -0.839358 -1.12275 2.08486 
12690 15.994 -3.85735 26.1719 -33.9394 0.00172181 0.00290601 -0.000233049 4.10781 -2.99097 -3.92071 
10498 1.008 2.47749 -10.904 -34.0636 -0.00455541 -0.00176617 -0.00614812 2.61725 1.27083 1.47349 
10497 15.994 1.99886 -10.026 -34.0675 0.000447987 0.00100868 0.00247554 11.1289 -1.19951 -4.01241 
10499 1.008 1.81155 -9.74374 -33.1266 -0.0122899 -0.0149884 0.00471968 -4.84849 -0.752474 -2.24307 
13538 1.008 7.24708 11.0878 -34.6583 -0.00744836 0.0208137 0.00930946 3.46509 0.769151 -0.187849 
13536 15.994 7.60942 10.5336 -33.9089 -0.00439092 0.00687499 -0.00247825 -3.40481 2.6438 0.671331 
13537 1.008 8.18272 9.80347 -34.2807 -0.0126038 0.00876746 -0.0188735 -0.241103 0.431739 1.68323 
ITEM: TIMESTEP
7000
ITEM: NUMBER OF ATOMS
21
ITEM: BOX BOUNDS pp pp pp
-26.176 26.176
-27.9149 27.9149
-38.3012 38.3012
ITEM: ATOMS id mass x y z vx vy vz fx fy fz 
12691 1.008 -1.77708 -27.5076 -33.9472 0.00619534 -0.00115421 0.0153345 2.94954 -2.96635 0.39268 
10346 1.008 -5.03991 0.39328 -34.0503 -0.00304638 0.00757554 0.00148414 -0.692889 -0.437145 -3.88966 
12727 1.008 -14.9997 0.885014 -34.5526 -0.014637 0.0202733 0.00267256 -4.89665 0.602688 -2.46106 
12728 1.008 -16.5304 0.456176 -34.1776 -0.00335101 -0.0122688 0.0114952 -1.26122 0.318418 3.91766 
12726 15.994 -15.6054 0.579 -33.8181 -0.00114046 -0.00492889 0.00328823 5.43552 2.64069 -16.0204 
10344 15.994 -6.03103 0.367624 -33.9199 -0.00288682 -0.0029344 0.000679362 -0.0106154 5.69869 -8.42554 
13584 15.994 -20.5415 10.8662 -34.0553 0.00210518 -0.00810887 -0.00352277 11.7233 2.23774 4.69961 
13585 1.008 -21.3729 10.3171 -33.9699 -0.00358605 0.00153109 0.00300273 0.332449 1.63515 1.21192 
13586 1.008 -20.7875 11.8203 -34.2259 0.0116485 -0.00305442 0.0109683 3.09938 -0.718003 -3.28844 
10345 1.008 -6.48461 0.350483 -34.8109 -0.00174363 -0.0164237 0.000357011 -2.33385 -3.30166 1.22622 
11366 1.008 -11.048 22.5745 -34.395 -0.0195862 -0.0204093 -0.00566841 -2.78774 -1.52605 1.58342 
11364 15.994 -11.7678 23.1144 -33.9587 -0.00209581 0.000315949 -0.00249309 4.35894 7.21507 1.01694 
11365 1.008 -11.9987 23.8946 -34.5399 0.0112103 0.00173742 -0.00587253 -0.52997 -3.09721 -3.58951 
12692 1.008 -3.12875 27.483 -33.5778 0.00933471 -0.00379938 0.0208177 2.79353 -0.601366 4.88302 
12690 15.994 -2.19539 27.414 -33.9301 0.000145344 0.00127007 -0.00444993 -13.6797 -0.95872 3.47167 
10498 1.008 2.77351 -9.8082 -33.4214 -0.000649464 -5.54304e-05 -0.00358945 2.80905 -3.43583 -2.55663 
10497 15.994 1.98638 -10.1282 -33.9487 -0.00309096 0.00356421 -0.00214153 -1.42244 7.4031 -7.86452 
10499 1.008 1.22106 -10.3074 -33.3305 0.00116594 -0.00495554 0.000682116 0.148772 5.71065 0.930361 
13538 1.008 9.563 11.8167 -35.1408 -0.0149336 -0.00333119 0.00785179 -1.65233 0.415783 -0.246361 
13536 15.994 9.53909 11.6623 -34.1531 0.00293885 0.00340825 0.00934442 -9.95541 10.8011 -17.0822 
13537 1.008 9.28889 12.5117 -33.6884 -0.0215711 -0.00195212 0.00595682 0.900002 -1.99033 1.30194 
ITEM: TIMESTEP
8000
ITEM: NUMBER OF ATOMS
21
ITEM: BOX BOUNDS pp pp pp
-25.9407 25.9407
-28.0621 28.0621
-38.454 38.454
ITEM: ATOMS id mass x y z vx vy vz fx fy fz 
10344 15.994 -6.62032 0.658849 -34.1025 0.00459404 0.00263436 -0.00484519 5.94637 8.32108 2.48785 
13584 15.994 -19.7977 11.202 -33.7734 -0.00926448 0.000118842 -0.00787774 0.434234 4.99973 -12.9432 
13585 1.008 -19.6579 10.3052 -34.1931 -0.00618995 -0.0103467 0.015564 0.147036 -0.322094 4.43129 
13586 1.008 -20.7473 11.4871 -33.9035 -0.0139672 -0.0130829 -0.00245234 -1.08238 -2.48443 5.36516 
10345 1.008 -6.2086 0.754629 -33.1962 -0.00670364 0.000657859 0.000501814 -1.60711 1.44779 0.533095 
10346 1.008 -5.90498 0.699248 -34.8001 0.0166961 -0.026813 0.00588981 -0.455545 -4.04508 2.94318 
12691 1.008 -2.0875 28.0053 -33.6683 0.0120927 -0.00828301 0.0113613 0.252681 -0.619557 -3.67858 
12726 15.994 -16.0614 1.28651 -33.8542 0.00438564 0.0042898 0.00215278 1.83874 4.63351 -11.8053 
12728 1.008 -17.0446 1.46664 -33.8259 0.0040619 0.00753213 -0.0284292 0.94417 -8.33899 2.15746 
11366 1.008 -13.4698 23.0862 -33.1158 0.0110686 0.0189712 0.00914322 4.21288 -4.81696 0.199425 
11364 15.994 -13.1222 23.1435 -34.0517 -0.00152482 0.0076153 0.0037592 0.0867163 12.3272 -3.17887 
11365 1.008 -12.189 23.5026 -34.0398 0.0103023 -0.0227002 -0.0107247 -1.34683 -4.1782 -1.65819 
12727 1.008 -15.8309 0.826296 -34.7116 0.0262888 -0.0157304 0.0188165 -1.82013 -4.96454 4.8197 
12692 1.008 -3.44958 27.13 -33.4536 0.00879184 -0.0010526 0.0200015 -0.776824 1.60448 -2.68772 
12690 15.994 -2.53938 27.1358 -33.8677 0.00130101 -0.000880055 0.00348341 -5.16083 -8.86427 3.03158 
10498 1.008 2.50972 -9.56945 -33.138 -0.0184925 0.00488731 0.0119615 -0.306942 2.88192 -0.0335685 
10497 15.994 2.21267 -9.27295 -34.0456 -0.00226853 -0.00199017 0.00440225 1.04898 -5.39563 -3.66251 
10499 1.008 1.24248 -9.03234 -34.0173 -0.00678737 -0.0173819 -0.0185405 3.0848 3.94704 0.0129498 
13538 1.008 7.98984 11.5821 -34.9155 -0.0142529 -0.00918026 -0.0074095 5.52688 -0.160657 1.24171 
13536 15.994 7.82539 11.1493 -34.0291 -0.00264467 0.00201114 0.000237135 -10.0961 -0.433117 -11.2228 
13537 1.008 7.58323 11.8483 -33.3562 0.0258734 0.0127065 -0.000683374 8.64043 0.619432 -1.37908 
ITEM: TIMESTEP
9000
ITEM: NUMBER OF ATOMS
21
ITEM: BOX BOUNDS pp pp pp
-26.1118 26.1118
-28.077 28.077
-38.2783 38.2783
ITEM: ATOMS id mass x y z vx vy vz fx fy fz 
12728 1.008 -16.2996 -0.154342 -33.5232 0.0114274 0.018763 0.0098913 -3.29075 -0.954618 -4.25924 
12727 1.008 -15.6956 -0.353129 -35.0277 -0.0214138 -0.000304092 -0.000832405 6.65919 1.19487 1.9546 
12726 15.994 -15.655 0.204295 -34.1984 0.00702727 0.00159631 -0.00345177 -0.946276 -5.24493 14.6018 
10344 15.994 -6.2665 1.97366 -34.0363 -0.00468905 -0.00093455 0.00388786 2.21273 5.05403 -6.63059 
10345 1.008 -6.29756 2.42252 -33.1432 -0.011405 -0.00791984 0.00715326 -0.736954 -5.86061 2.36965 
10346 1.008 -5.36196 1.57085 -34.1761 -0.00244908 0.00338853 0.00594979 -1.61096 -3.67745 0.268463 
13584 15.994 -20.2081 10.4496 -33.855 -0.00319945 0.00208592 -0.00552337 -4.53929 -0.553346 -0.673907 
13585 1.008 -19.9653 10.6764 -34.7982 0.0141721 0.00574793 -0.00015358 3.63627 1.51955 2.2223 
13586 1.008 -21.1563 10.1339 -33.821 0.00426037 -0.0227459 -0.0280841 0.983275 4.82196 -3.35099 
11366 1.008 -12.9548 23.6396 -33.4757 -0.000165489 0.0102142 0.00493766 0.313115 -6.76391 -5.95103 
11364 15.994 -12.3505 24.1554 -34.0829 0.000205764 0.00285561 -0.000972532 -6.97491 18.3887 6.37381 
11365 1.008 -11.4044 24.0581 -33.7738 0.00177402 -0.00700263 -0.00901789 0.291174 -10.0789 -6.71257 
12691 1.008 -1.98896 26.1355 -34.2252 0.00884324 0.0269107 0.0243388 -6.24519 -1.03438 -3.36985 
12692 1.008 -3.1945 27.139 -33.77 -0.0311105 -0.00771911 -0.00503132 0.692225 -1.35597 -3.66757 
12690 15.994 -2.90707 26.1832 -33.8317 -0.00573568 -1.09592e-05 -0.00631063 4.18038 0.728151 2.81922 
10498 1.008 2.43903 -10.0498 -33.1174 -0.00913396 0.000388776 0.00249161 -1.26202 0.526228 -0.418688 
10497 15.994 2.27241 -10.3925 -34.042 0.00252953 -0.00401765 0.0020259 0.872628 -4.52928 0.775798 
10499 1.008 1.3131 -10.6605 -34.1308 0.00731206 -0.019118 -0.00401383 0.295437 1.88667 -1.32308 
13538 1.008 5.01694 12.6959 -35.0274 -0.0274336 -0.0128477 0.000203032 -3.82905 0.435593 2.59278 
13536 15.994 5.1621 12.338 -34.1049 -0.00754366 0.00174684 0.00271812 18.0894 -8.28001 -2.70956 
13537 1.008 6.11598 12.4775 -33.8391 -1.74758e-05 -0.000860877 -0.0230053 -0.127848 1.90343 -3.47415 
ITEM: TIMESTEP
10000
ITEM: NUMBER OF ATOMS
21
ITEM: BOX BOUNDS pp pp pp
-26.2053 26.2053
-27.8755 27.8755
-38.2547 38.2547
ITEM: ATOMS id mass x y z vx vy vz fx fy fz 
12692 1.008 -1.20263 -27.4948 -33.6942 0.000196066 0.00560205 -0.0133817 0.579398 0.587773 -2.65055 
12727 1.008 -16.6711 -0.224277 -34.2084 -0.0188529 0.00959923 -0.0198113 2.92846 2.20503 -3.97408 
12728 1.008 -16.8318 1.37272 -34.5107 0.00959165 0.0194054 0.0170542 4.14783 -0.0685045 1.42534 
10344 15.994 -4.41723 1.13308 -33.9399 -0.00151036 0.00653085 -0.00300941 -3.62343 -2.72083 -5.8674 
10345 1.008 -4.32848 1.33173 -32.9638 -0.00928408 0.00658409 -0.0023118 2.69583 1.87397 -1.20383 
10346 1.008 -3.7121 0.478631 -34.2128 0.00155089 0.00759008 0.00235166 2.63726 3.8843 -2.33555 
13584 15.994 -20.0723 11.0075 -33.7178 0.00184834 -0.00815852 0.000403734 -0.397735 1.89216 -7.01842 
13585 1.008 -20.4125 11.1364 -34.6493 -0.0152436 0.0224422 0.0108584 6.77574 0.0664324 0.531967 
13586 1.008 -20.8416 11.0056 -33.0788 0.0147374 -0.0151364 0.0159408 -3.31344 -3.80241 -6.14295 
12726 15.994 -16.4163 0.693968 -33.9052 -0.00135248 -0.00199725 0.000543999 -0.234964 -9.93656 4.26873 
11366 1.008 -12.5648 25.1216 -33.2376 -0.00262012 -0.0113868 -0.00024125 0.413293 -3.93905 0.443801 
11364 15.994 -12.3588 25.0224 -34.2111 -0.0024864 0.00559534 -0.00192624 8.49747 -2.82325 12.8344 
11365 1.008 -11.3911 24.798 -34.3263 0.00385247 0.0356327 -0.00719904 -1.20906 2.1077 1.99236 
12691 1.008 -1.39613 26.915 -34.606 -0.00236649 -0.00999201 0.0101021 -0.846319 2.88568 -3.6101 
12690 15.994 -1.87194 27.6284 -34.0914 -0.000901458 -0.00147861 -0.000321799 1.75708 0.324164 6.09271 
10498 1.008 2.69086 -10.4691 -33.0549 -0.0182074 -0.00582744 0.00298889 1.48221 5.00263 -2.90954 
10497 15.994 2.91619 -10.73 -33.9937 0.00297007 0.00332388 0.00551684 2.58842 -6.20789 -5.41407 
10499 1.008 2.20315 -11.3319 -34.3532 0.0249578 -0.0153346 -0.00692257 -0.375205 1.74672 3.76564 
13538 1.008 5.52634 14.4921 -34.1795 -0.00912642 0.00480702 0.00175144 -1.60824 0.674909 2.17648 
13536 15.994 6.23492 15.128 -33.8738 -0.0036988 0.00229721 -0.00561899 0.120732 -2.06564 -9.6131 
13537 1.008 7.12942 14.685 -33.9336 -0.00673612 -0.00364126 -0.00711342 -1.56407 -3.62773 3.73464 
ITEM: TIMESTEP
11000
ITEM: NUMBER OF ATOMS
21
ITEM: BOX BOUNDS pp pp pp
-26.0398 26.0398
-28.0243 28.0243
-38.3138 38.3138
ITEM: ATOMS id mass x y z vx vy vz fx fy fz 
13584 15.994 -19.4399 8.98124 -34.0426 0.00342045 -0.0039419 0.00306366 2.73874 -7.86982 0.847664 
13585 1.008 -18.7836 9.11206 -34.7856 -0.000915255 0.0263835 0.00461975 -3.10654 4.31079 1.05891 
13586 1.008 -20.351 8.8275 -34.4252 0.00270207 0.00308367 0.0019774 -2.10611 6.19203 3.12968 
12728 1.008 -17.023 1.14731 -34.4004 -0.00324321 0.00685878 0.0032284 -0.18172 3.57888 0.595428 
12727 1.008 -15.4126 0.874973 -34.3891 -0.00360451 0.00406738 -0.013796 -1.67631 -2.71675 -2.03515 
12726 15.994 -16.1925 1.18384 -33.8446 0.00173296 -0.000153386 -0.00376355 9.50256 -3.1282 -13.6224 
10344 15.994 -4.91873 2.47298 -33.9348 0.00283761 0.000774655 0.00615729 5.28226 8.59953 -3.70209 
10345 1.008 -5.21916 3.41211 -33.7682 0.0132931 0.00281583 0.0134389 1.90713 0.0756581 2.8172 
10346 1.008 -4.0205 2.33105 -33.5189 0.00176258 -0.0121096 0.00405267 -3.73131 -4.49054 5.81201 
11366 1.008 -13.2356 25.495 -33.5941 -0.00239164 0.00264563 -0.00707298 -0.562339 0.428714 -1.09943 
11364 15.994 -12.5151 25.8885 -34.1652 8.99452e-05 0.00567203 -0.00185142 6.48453 2.26193 1.72305 
11365 1.008 -11.6607 25.3913 -34.0145 -0.00122118 0.00313629 -0.00281011 -1.20936 -3.37074 -2.46951 
12690 15.994 -2.68469 27.2423 -33.9267 -0.000137419 -0.00793912 0.00064737 -2.53639 0.460422 1.00779 
12692 1.008 -1.81024 27.0364 -33.4875 0.00252438 0.00915926 0.00334217 0.107372 2.53315 -0.978557 
12691 1.008 -2.65881 26.9405 -34.8797 0.0114079 -0.000482483 -0.00140417 -1.76558 -0.636778 0.719784 
10498 1.008 2.59335 -10.0792 -33.7599 0.0205282 0.0088594 -0.0120732 0.0794191 -2.87544 3.2995 
10497 15.994 2.9059 -11.0134 -33.9318 4.17867e-05 -0.00163018 0.0075761 -1.31994 1.12904 -2.54051 
10499 1.008 2.14689 -11.5593 -34.2866 -0.0129799 0.00648356 0.0229593 0.0230839 2.45543 -0.849708 
13538 1.008 4.74074 14.7515 -34.6357 -0.00029881 -0.00740538 0.00740039 -3.02273 -2.93794 3.05426 
13536 15.994 5.13503 15.2747 -33.8801 -0.00200164 -0.00211069 0.0046148 1.40034 -5.70508 -7.65768 
13537 1.008 5.81709 14.7165 -33.4077 0.0158652 0.0104949 -0.00628505 -1.16089 1.12188 0.0263583 
ITEM: TIMESTEP
12000
ITEM: NUMBER OF ATOMS
21
ITEM: BOX BOUNDS pp pp pp
-26.1053 26.1053
-27.8947 27.8947
-38.3122 38.3122
ITEM: ATOMS id mass x y z vx vy vz fx fy fz 
12727 1.008 -15.6839 -0.0972881 -34.2226 0.00099563 0.00554246 -0.0117607 -1.53131 0.536249 -3.14501 
12692 1.008 -2.78577 -27.5066 -33.7399 0.00952923 -0.0182036 -0.0114195 -1.56958 0.579101 -1.13954 
13584 15.994 -18.7572 5.96779 -34.1531 -0.00340001 0.00307711 0.00624411 -4.36638 6.89612 8.91388 
13585 1.008 -18.7652 6.09915 -35.1444 -0.0119297 0.0292189 0.00973243 -0.596234 -4.86693 1.73162 
13586 1.008 -19.6877 5.79094 -33.8323 -0.000129438 -0.00888893 0.00908743 1.1579 -6.516 -0.344778 
12728 1.008 -16.9843 0.804427 -34.6267 -0.0116454 -0.0054826 0.00431029 1.05365 6.51908 5.13207 
12726 15.994 -16.5127 0.341847 -33.8759 0.00528056 0.00446163 -0.000161791 -0.966447 -4.45082 5.26963 
10344 15.994 -5.09696 2.43113 -34.0235 0.00390678 -0.00234477 0.00045031 1.28034 0.355841 -0.549522 
10345 1.008 -5.22351 3.34288 -34.4143 0.0111529 -0.00365504 -0.00497855 0.174504 0.458172 1.46743 
10346 1.008 -4.12809 2.2852 -33.8235 0.000596762 -0.00279668 0.0161675 -0.500732 0.0352377 -0.316712 
11366 1.008 -12.1283 26.039 -33.7539 -0.00131475 0.0283956 -0.00448284 2.23715 -5.41512 3.30801 
11364 15.994 -11.1987 25.9436 -34.1099 -0.0037349 -0.000167456 -0.00325048 -7.81232 6.18083 3.33142 
11365 1.008 -11.0935 25.0429 -34.5315 -0.0375123 0.00498 -0.0227495 4.46548 5.83285 -1.32609 
12691 1.008 -3.538 27.2259 -34.7323 -0.023463 -0.00540318 -6.86361e-05 -0.604463 2.46117 -0.521618 
12690 15.994 -3.51572 27.6024 -33.8062 -0.00272804 -0.00615333 -0.000250696 5.84776 -0.956325 -10.155 
10498 1.008 2.25109 -10.019 -33.607 0.00748684 -0.00136292 0.00626523 0.626859 0.283333 -0.991708 
10497 15.994 2.83713 -10.7618 -33.9308 -0.00222331 -0.00500868 -0.00296213 -5.47324 -4.4827 -0.308712 
10499 1.008 2.33617 -11.317 -34.5947 -0.0153546 -0.000542233 0.00319129 0.705749 1.87424 -1.77925 
13538 1.008 3.93491 13.6182 -34.2671 0.0167505 0.00127987 -0.00542062 3.09217 0.106246 -0.29837 
13536 15.994 3.91414 14.4701 -33.7439 0.00306265 -0.00232193 -9.66049e-05 4.55738 -5.02081 -12.3007 
13537 1.008 4.84603 14.8143 -33.6292 -0.00343072 0.0176822 -0.00735583 -1.84788 0.734519 3.00693 
ITEM: TIMESTEP
13000
ITEM: NUMBER OF ATOMS
21
ITEM: BOX BOUNDS pp pp pp
-26.1359 26.1359
-27.9823 27.9823
-38.3734 38.3734
ITEM: ATOMS id mass x y z vx vy vz fx fy fz 
12692 1.008 -2.4677 -27.2113 -33.8984 0.0252894 -0.0070586 0.00262457 1.5813 -1.25392 -3.40741 
12727 1.008 -14.4604 -0.0786106 -34.3323 -0.00075136 0.0103369 -0.0149846 0.603908 1.56982 0.988218 
13584 15.994 -18.4022 7.37055 -34.0004 0.00028112 -0.00529435 0.00350029 13.4572 1.66435 3.7806 
13585 1.008 -17.6249 7.66013 -34.559 0.000692969 0.00391116 0.00882704 -1.07914 -2.6942 -3.40208 
13586 1.008 -18.7483 6.49529 -34.3382 0.0149746 -0.0109768 0.00310975 -3.2332 1.47953 2.63545 
12728 1.008 -15.7463 0.926126 -34.2648 -0.00737207 -0.000649825 0.0226872 3.41951 1.43837 0.0455682 