created with groupy

12072 atoms
9384 bonds
7092 angles
3832 dihedrals
132 impropers

58 atom types
54 bond types
55 angle types
43 dihedral types
3 improper types

-21.166010 21.166010 xlo xhi
-21.166010 21.166010 ylo yhi
-53.947325 53.947325 zlo zhi

Masses

1 15.9994
2 15.9994
3 15.9994
4 15.9994
5 15.9994
6 14.0067
7 14.0067
8 14.0067
9 14.0067
10 14.0067
11 14.0067
12 12.0110
13 12.0110
14 13.0190
15 14.0270
16 15.0350
17 16.0430
18 14.0270
19 13.0190
20 1.0080
21 1.0080
22 999.0   # dummy, this type not in this system
23 32.0600
24 63.5460
25 63.5460
26 55.8470
27 65.3700
28 24.3050
29 40.0800
30 30.9738
31 39.9480
32 18.9984
33 35.4350
34 79.9040
35 15.0350
36 15.9994
37 22.9898
38 35.4350
39 12.0110
40 35.4350
41 1.0080
42 32.0600
43 15.0350
44 15.9994
45 12.0110
46 35.4350
47 18.9984
48 12.0110
49 14.0270
50 15.9994
51 12.0110
52 15.9994
53 14.0067
54 28.0800
55 999.0   # dummy, this type not in this system
56 999.0   # dummy, this type not in this system
57 15.9994
58 1.0080

Atoms

1 1 16 0.40000 21.84115 -15.20031 31.14731
2 1 16 0.40000 19.71514 -14.37165 30.49894
3 1 16 0.40000 21.46738 -14.56354 28.88644
4 1 8 -0.50000 20.85167 -15.19401 30.05592
5 1 15 0.30000 20.39279 -16.55463 29.76160
6 1 15 0.40000 19.76871 -17.88497 29.29195
7 1 3 -0.80000 19.13763 -18.79155 28.52937
8 1 30 1.70000 19.26813 -18.37015 26.92694
9 1 2 -0.80000 20.51588 -19.04746 26.41720
10 1 2 -0.80000 19.20515 -16.84890 26.94456
11 1 3 -0.70000 17.92216 -19.04055 26.23499
12 1 15 0.40000 17.51868 -18.61496 25.00421
13 1 14 0.30000 17.09597 -17.77259 23.87741
14 1 4 -0.70000 17.00068 -18.16657 22.44206
15 1 12 0.70000 15.73727 -18.24038 21.78852
16 1 1 -0.70000 14.68974 -18.34051 22.42138
17 1 15 0.00000 15.63498 -18.16862 20.21520
18 1 15 0.00000 15.21732 -18.06186 18.42939
19 1 15 0.00000 14.76508 -17.95170 16.63924
20 1 15 0.00000 14.33509 -17.85094 14.83471
21 1 15 0.00000 13.93928 -17.76720 13.01820
22 1 15 0.00000 13.57712 -17.70289 11.19391
23 1 15 0.00000 13.24594 -17.65991 9.36657
24 1 15 0.00000 12.94498 -17.63681 7.54355
25 1 15 0.00000 12.66774 -17.63763 5.73352
26 1 15 0.00000 12.41313 -17.66429 3.94804
27 1 15 0.00000 12.18076 -17.72064 2.19949
28 1 15 0.00000 11.97702 -17.80816 0.50489
29 1 15 0.00000 11.78858 -17.93546 -1.12961
30 1 15 0.00000 11.60708 -18.09887 -2.71337
31 1 15 0.00000 11.42402 -18.28646 -4.25675
32 1 15 0.00000 11.23714 -18.38959 -5.93164
33 1 16 0.00000 11.05945 -18.63745 -7.38389
34 1 15 0.50000 17.51466 -16.42961 24.17075
35 1 4 -0.70000 17.97175 -15.32384 24.77337
36 1 12 0.80000 18.36405 -14.26355 24.04033
37 1 1 -0.60000 18.69048 -13.17032 24.53457
38 1 15 0.00000 18.36160 -14.42246 22.61947
39 1 15 0.00000 18.34824 -14.72013 21.13031
40 1 15 0.00000 18.37708 -15.06298 19.65193
41 1 15 0.00000 18.42731 -15.38924 18.16964
42 1 15 0.00000 18.44444 -15.68061 16.67754
43 1 15 0.00000 18.39116 -15.94089 15.17912
44 1 15 0.00000 18.26503 -16.17296 13.67905
45 1 15 0.00000 18.08593 -16.36705 12.17786
46 1 15 0.00000 17.87265 -16.50316 10.67328
47 1 15 0.00000 17.62857 -16.56627 9.16862
48 1 15 0.00000 17.33990 -16.56404 7.66912
49 1 15 0.00000 16.98774 -16.52395 6.18224
50 1 15 0.00000 16.56893 -16.47994 4.71278
51 1 15 0.00000 16.10202 -16.45106 3.25649
52 1 15 0.00000 15.61447 -16.43342 1.80394
53 1 15 0.00000 15.21629 -16.37816 0.33075
54 1 16 0.00000 14.66000 -16.38690 -1.10491
55 2 16 0.40000 22.64481 20.27144 29.32504
56 2 16 0.40000 21.06203 21.85986 28.55126
57 2 16 0.40000 22.52859 20.78062 27.00472
58 2 8 -0.50000 21.72876 20.59186 28.21670
59 2 15 0.30000 20.72668 19.53557 28.04779
60 2 15 0.40000 19.58429 18.55971 27.69780
61 2 3 -0.80000 18.60993 17.93892 27.01447
62 2 30 1.70000 18.87227 18.10416 25.38161
63 2 2 -0.80000 19.69997 16.91253 24.96884
64 2 2 -0.80000 19.46498 19.50033 25.24785
65 2 3 -0.70000 17.35396 18.00776 24.72944
66 2 15 0.40000 17.14357 18.44129 23.45408
67 2 14 0.30000 17.09597 19.26793 22.24069
68 2 4 -0.70000 16.80988 18.81300 20.84938
69 2 12 0.70000 15.62169 19.22146 20.17848
70 2 1 -0.70000 14.64592 19.64088 20.79477
71 2 15 0.00000 15.52500 19.17460 18.60387
72 2 15 0.00000 15.15342 19.27287 16.80741
73 2 15 0.00000 14.75193 19.38852 15.00555
74 2 15 0.00000 14.36622 19.48481 13.19080
75 2 15 0.00000 14.00390 19.55004 11.36655
76 2 15 0.00000 13.66352 19.58267 9.53723
77 2 15 0.00000 13.34199 19.58259 7.70767
78 2 15 0.00000 13.03939 19.55218 5.88503
79 2 15 0.00000 12.74830 19.49142 4.07820
80 2 15 0.00000 12.46720 19.40019 2.29883
81 2 15 0.00000 12.19434 19.27642 0.55963
82 2 15 0.00000 11.93527 19.11773 -1.12220
83 2 15 0.00000 11.67437 18.92265 -2.73997
84 2 15 0.00000 11.40547 18.69716 -4.30356
85 2 15 0.00000 11.12573 18.45459 -5.82461
86 2 15 0.00000 10.87567 18.27660 -7.48491
87 2 16 0.00000 10.57708 17.98653 -8.90925
88 2 15 0.50000 18.05417 20.32544 22.40947
89 2 4 -0.70000 18.95269 21.18378 22.91018
90 2 12 0.80000 19.74366 21.89728 22.08510
91 2 1 -0.60000 20.51630 22.78944 22.47632
92 2 15 0.00000 19.64215 21.61547 20.68710
93 2 15 0.00000 19.47005 21.20685 19.23459
94 2 15 0.00000 19.31707 20.74066 17.79819
95 2 15 0.00000 19.19040 20.27987 16.35674
96 2 15 0.00000 19.04850 19.86361 14.90136
97 2 15 0.00000 18.85606 19.50473 13.43507
98 2 15 0.00000 18.60976 19.20212 11.96274
99 2 15 0.00000 18.33176 18.95617 10.48438
100 2 15 0.00000 18.04753 18.77658 8.99618
101 2 15 0.00000 17.76660 18.67576 7.50003
102 2 15 0.00000 17.47337 18.65322 6.00158
103 2 15 0.00000 17.13917 18.69305 4.51055
104 2 15 0.00000 16.74678 18.76657 3.03500
105 2 15 0.00000 16.30473 18.84832 1.57297
106 2 15 0.00000 15.83931 18.92914 0.11530
107 2 15 0.00000 15.47028 19.00359 -1.36461
108 2 16 0.00000 14.93183 19.09170 -2.80439
109 3 16 0.40000 16.78944 -15.51754 29.56933
110 3 16 0.40000 14.75527 -14.49734 28.89976
111 3 16 0.40000 16.47805 -14.89876 27.29406
112 3 8 -0.50000 15.80422 -15.43820 28.47696
113 3 15 0.30000 15.21244 -16.75301 28.21332
114 3 15 0.40000 14.45907 -18.02536 27.77352
115 3 3 -0.80000 13.74039 -18.88216 27.03116
116 3 30 1.70000 13.91019 -18.51254 25.41966
117 3 2 -0.80000 15.08410 -19.32164 24.92696
118 3 2 -0.80000 13.99828 -16.99253 25.40241
119 3 3 -0.70000 12.50362 -19.06191 24.74170
120 3 15 0.40000 12.14290 -18.62670 23.50104
121 3 14 0.30000 11.80447 -17.77259 22.35480
122 3 4 -0.70000 11.66897 -18.18792 20.92873
123 3 12 0.70000 10.40372 -18.15111 20.27561
124 3 1 -0.70000 9.35215 -18.13244 20.90940
125 3 15 0.00000 10.30727 -18.10558 18.70094
126 3 15 0.00000 9.90021 -17.99884 16.91268
127 3 15 0.00000 9.45908 -17.88539 15.11997
128 3 15 0.00000 9.03914 -17.78382 13.31312
129 3 15 0.00000 8.65151 -17.70285 11.49471
130 3 15 0.00000 8.29543 -17.64472 9.66902
131 3 15 0.00000 7.96807 -17.61096 7.84081
132 3 15 0.00000 7.66881 -17.59985 6.01739
133 3 15 0.00000 7.39079 -17.61461 4.20754
134 3 15 0.00000 7.13276 -17.65674 2.42285
135 3 15 0.00000 6.89396 -17.72978 0.67579
136 3 15 0.00000 6.68063 -17.83542 -1.01660
137 3 15 0.00000 6.47864 -17.98079 -2.64797
138 3 15 0.00000 6.28005 -18.16160 -4.22779
139 3 15 0.00000 6.07754 -18.36538 -5.76668
140 3 15 0.00000 5.87946 -18.48778 -7.43898
141 3 16 0.00000 5.67643 -18.74997 -8.88538
142 3 15 0.50000 12.35451 -16.47135 22.61781
143 3 4 -0.70000 12.91960 -15.40282 23.19549
144 3 12 0.80000 13.41421 -14.40368 22.43884
145 3 1 -0.60000 13.84792 -13.33715 22.90830
146 3 15 0.00000 13.39441 -14.59402 21.02198
147 3 15 0.00000 13.34992 -14.92290 19.54000
148 3 15 0.00000 13.34298 -15.30064 18.06989
149 3 15 0.00000 13.35894 -15.66410 16.59551
150 3 15 0.00000 13.34542 -15.98979 15.11049
151 3 15 0.00000 13.26490 -16.27772 13.61835
152 3 15 0.00000 13.11470 -16.53041 12.12384
153 3 15 0.00000 12.91554 -16.74009 10.62728
154 3 15 0.00000 12.68811 -16.88878 9.12597
155 3 15 0.00000 12.43727 -16.96180 7.62287
156 3 15 0.00000 12.14854 -16.96528 6.12339
157 3 15 0.00000 11.80039 -16.92452 4.63557
158 3 15 0.00000 11.38634 -16.87285 3.16502
159 3 15 0.00000 10.92293 -16.83117 1.70792
160 3 15 0.00000 10.43788 -16.79853 0.25479
161 3 15 0.00000 10.04546 -16.73782 -1.21973
162 3 16 0.00000 9.48941 -16.72422 -2.65544
163 4 16 0.40000 20.91214 -15.85832 29.30643
164 4 16 0.40000 21.77309 -14.09888 27.96847
165 4 16 0.40000 20.98575 -16.10746 26.94228
166 4 8 -0.50000 20.74633 -15.15095 28.02489
167 4 15 0.30000 19.41387 -14.54726 27.93225
168 4 15 0.40000 18.08356 -13.82885 27.62565
169 4 3 -0.80000 17.08608 -13.23973 26.94765
170 4 30 1.70000 17.06656 -13.79112 25.37986
171 4 2 -0.80000 16.14998 -14.98913 25.36979
172 4 2 -0.80000 18.53918 -13.98182 25.04296
173 4 3 -0.70000 16.39168 -12.53924 24.53297
174 4 15 0.40000 16.52930 -12.49598 23.17727
175 4 14 0.30000 17.09597 -12.48109 21.82206
176 4 4 -0.70000 16.36051 -12.64179 20.53450
177 4 12 0.70000 16.25955 -11.56075 19.61258
178 4 1 -0.70000 16.43912 -10.39739 19.96215
179 4 15 0.00000 15.93692 -11.82344 18.09014
180 4 15 0.00000 15.62776 -11.83619 16.27927
181 4 15 0.00000 15.32453 -11.81724 14.45472
182 4 15 0.00000 15.00616 -11.82128 12.62443
183 4 15 0.00000 14.66466 -11.85796 10.79537
184 4 15 0.00000 14.29886 -11.92543 8.97192
185 4 15 0.00000 13.90841 -12.01976 7.15827
186 4 15 0.00000 13.49671 -12.13882 5.36082
187 4 15 0.00000 13.06277 -12.27378 3.58697
188 4 15 0.00000 12.60783 -12.42070 1.84773
189 4 15 0.00000 12.13141 -12.57580 0.15553
190 4 15 0.00000 11.63575 -12.74122 -1.47168
191 4 15 0.00000 11.11559 -12.90134 -3.02959
192 4 15 0.00000 10.57299 -13.05082 -4.52999
193 4 15 0.00000 10.01767 -13.18578 -5.98742
194 4 15 0.00000 9.51022 -13.36041 -7.58830
195 4 16 0.00000 8.91974 -13.47022 -8.94525
196 4 15 0.50000 18.41561 -13.04343 21.90739
197 4 4 -0.70000 19.58237 -13.53429 22.34617
198 4 12 0.80000 20.37063 -14.25150 21.52172
199 4 1 -0.60000 21.51181 -14.63878 21.82786
200 4 15 0.00000 19.85460 -14.53758 20.21943
201 4 15 0.00000 19.18897 -14.80508 18.88085
202 4 15 0.00000 18.47814 -15.10315 17.57324
203 4 15 0.00000 17.77990 -15.42540 16.26375
204 4 15 0.00000 17.11627 -15.72389 14.92882
205 4 15 0.00000 16.48853 -15.96136 13.56302
206 4 15 0.00000 15.89537 -16.13395 12.17077
207 4 15 0.00000 15.34417 -16.26228 10.75549
208 4 15 0.00000 14.85151 -16.36825 9.31541
209 4 15 0.00000 14.43228 -16.45689 7.85119
210 4 15 0.00000 14.08200 -16.51251 6.36592
211 4 15 0.00000 13.77819 -16.51069 4.86786
212 4 15 0.00000 13.48986 -16.44166 3.36829
213 4 15 0.00000 13.19559 -16.32095 1.87214
214 4 15 0.00000 12.89372 -16.17771 0.37672
215 4 15 0.00000 12.61298 -16.13120 -1.12358
216 4 16 0.00000 12.29757 -15.91375 -2.61485
217 5 16 0.40000 11.21503 0.77062 29.05586
218 5 16 0.40000 11.51823 2.78876 27.84667
219 5 16 0.40000 11.33416 0.71147 26.68120
220 5 8 -0.50000 10.83948 1.48378 27.82274
221 5 15 0.30000 9.38864 1.68190 27.75743
222 5 15 0.40000 7.90462 2.00448 27.48631
223 5 3 -0.80000 6.77293 2.32439 26.83931
224 5 30 1.70000 6.89798 1.89661 25.23814
225 5 2 -0.80000 6.36619 0.48846 25.13923
226 5 2 -0.80000 8.35957 2.16202 24.90378
227 5 3 -0.70000 5.88215 2.95390 24.46996
228 5 15 0.40000 5.98808 3.12530 23.12157
229 5 14 0.30000 6.51297 3.39342 21.77601
230 5 4 -0.70000 5.84258 3.11343 20.47343
231 5 12 0.70000 5.42478 4.17824 19.62466
232 5 1 -0.70000 5.26431 5.31791 20.05273
233 5 15 0.00000 5.17675 3.93567 18.08500
234 5 15 0.00000 4.86663 3.95494 16.27435
235 5 15 0.00000 4.55290 4.00709 14.45223
236 5 15 0.00000 4.23125 4.03331 12.62269
237 5 15 0.00000 3.89690 4.02159 10.79198
238 5 15 0.00000 3.54823 3.97308 8.96458
239 5 15 0.00000 3.18380 3.89115 7.14492
240 5 15 0.00000 2.80633 3.77837 5.33956
241 5 15 0.00000 2.41239 3.64243 3.55648
242 5 15 0.00000 2.00214 3.48669 1.80692
243 5 15 0.00000 1.57415 3.31380 0.10354
244 5 15 0.00000 1.13135 3.12117 -1.53587
245 5 15 0.00000 0.66425 2.92191 -3.10604
246 5 15 0.00000 0.17316 2.72250 -4.61832
247 5 15 0.00000 -0.33387 2.53042 -6.08691
248 5 15 0.00000 -0.78504 2.32384 -7.70078
249 5 16 0.00000 -1.33200 2.13894 -9.06778
250 5 15 0.50000 7.93953 3.23158 21.83666
251 5 4 -0.70000 9.20258 3.07032 22.25321
252 5 12 0.80000 10.15616 2.66780 21.39060
253 5 1 -0.60000 11.36351 2.60692 21.68146
254 5 15 0.00000 9.73189 2.33238 20.06712
255 5 15 0.00000 9.15868 1.97396 18.70720
256 5 15 0.00000 8.55132 1.57122 17.37571
257 5 15 0.00000 7.96298 1.14914 16.04084
258 5 15 0.00000 7.40066 0.76145 14.68252
259 5 15 0.00000 6.85479 0.44446 13.29782
260 5 15 0.00000 6.32303 0.20117 11.89140
261 5 15 0.00000 5.81844 0.01382 10.46536
262 5 15 0.00000 5.36320 -0.13364 9.01663
263 5 15 0.00000 4.97302 -0.24174 7.54570
264 5 15 0.00000 4.63911 -0.29700 6.05666
265 5 15 0.00000 4.33299 -0.28312 4.55914
266 5 15 0.00000 4.02226 -0.20048 3.06473
267 5 15 0.00000 3.69096 -0.07043 1.57713
268 5 15 0.00000 3.34589 0.07890 0.09168
269 5 15 0.00000 3.04894 0.14227 -1.40487
270 5 16 0.00000 2.66952 0.35829 -2.88137
271 6 16 0.40000 -11.97296 -13.92667 29.82444
272 6 16 0.40000 -14.21082 -14.40770 29.20189
273 6 16 0.40000 -12.74387 -13.32913 27.65526
274 6 8 -0.50000 -12.82840 -14.34954 28.70210
275 6 15 0.30000 -12.42482 -15.66943 28.20867
276 6 15 0.40000 -12.18071 -17.03737 27.53858
277 6 3 -0.80000 -12.20081 -18.02970 26.63494
278 6 30 1.70000 -12.40825 -17.40079 25.11054
279 6 2 -0.80000 -11.02242 -17.15263 24.56891
280 6 2 -0.80000 -13.34140 -16.21759 25.32905
281 6 3 -0.70000 -13.14377 -18.62765 24.27765
282 6 15 0.40000 -13.77192 -18.35499 23.09873
283 6 14 0.30000 -14.65304 -17.77259 22.07778
284 6 4 -0.70000 -14.56382 -17.95211 20.59983
285 6 12 0.70000 -15.57669 -18.65694 19.88844
286 6 1 -0.70000 -16.34328 -19.42997 20.45644
287 6 15 0.00000 -15.76933 -18.44788 18.33599
288 6 15 0.00000 -16.24793 -18.36524 16.56424
289 6 15 0.00000 -16.75682 -18.29933 14.78717
290 6 15 0.00000 -17.24278 -18.22616 12.99557
291 6 15 0.00000 -17.69158 -18.14521 11.19128
292 6 15 0.00000 -18.10208 -18.05930 9.37815
293 6 15 0.00000 -18.47512 -17.97215 7.56048
294 6 15 0.00000 -18.81187 -17.88401 5.74572
295 6 15 0.00000 -19.11490 -17.80307 3.94165
296 6 15 0.00000 -19.38346 -17.73304 2.15938
297 6 15 0.00000 -19.61512 -17.67891 0.41068
298 6 15 0.00000 -19.80308 -17.64043 -1.28757
299 6 15 0.00000 -19.95292 -17.63308 -2.93098
300 6 15 0.00000 -20.07398 -17.65751 -4.52870
301 6 15 0.00000 -20.18055 -17.70768 -6.08974
302 6 15 0.00000 -20.34488 -17.67460 -7.76983
303 6 16 0.00000 -20.40818 -17.78228 -9.24849
304 6 15 0.50000 -15.07913 -16.49006 22.56614
305 6 4 -0.70000 -15.32301 -15.41724 23.33060
306 6 12 0.80000 -15.65076 -14.23962 22.76380
307 6 1 -0.60000 -15.99832 -13.23817 23.41364
308 6 15 0.00000 -15.62180 -14.17837 21.33568
309 6 15 0.00000 -15.52413 -14.22578 19.82089
310 6 15 0.00000 -15.36546 -14.28642 18.31253
311 6 15 0.00000 -15.19919 -14.32082 16.80345
312 6 15 0.00000 -15.08050 -14.34507 15.28791
313 6 15 0.00000 -15.03740 -14.38435 13.76724
314 6 15 0.00000 -15.06998 -14.44303 12.24557
315 6 15 0.00000 -15.16773 -14.50178 10.72560
316 6 15 0.00000 -15.32706 -14.53332 9.20856
317 6 15 0.00000 -15.55381 -14.52409 7.69990
318 6 15 0.00000 -15.85451 -14.48892 6.20318
319 6 15 0.00000 -16.22827 -14.46187 4.72128
320 6 15 0.00000 -16.65776 -14.47267 3.25430
321 6 15 0.00000 -17.11704 -14.52531 1.79624
322 6 15 0.00000 -17.58641 -14.59945 0.33949
323 6 15 0.00000 -18.00580 -14.58876 -1.12880
324 6 16 0.00000 -18.51505 -14.72624 -2.57532
325 7 16 0.40000 1.58474 19.67544 29.13338
326 7 16 0.40000 0.25481 21.45471 28.30122
327 7 16 0.40000 1.53983 20.11599 26.79659
328 7 8 -0.50000 0.72392 20.09062 28.01229
329 7 15 0.30000 -0.42505 19.19056 27.87729
330 7 15 0.40000 -1.70121 18.38469 27.55818
331 7 3 -0.80000 -2.75909 17.89314 26.89413
332 7 30 1.70000 -2.47924 17.96098 25.25723
333 7 2 -0.80000 -1.83977 16.64564 24.88791
334 7 2 -0.80000 -1.68511 19.24758 25.07697
335 7 3 -0.70000 -3.99661 18.06990 24.60484
336 7 15 0.40000 -4.14323 18.48576 23.31476
337 7 14 0.30000 -4.07004 19.26793 22.07348
338 7 4 -0.70000 -4.42443 18.81313 20.69795
339 7 12 0.70000 -5.54007 19.37101 20.01029
340 7 1 -0.70000 -6.44070 19.95238 20.60923
341 7 15 0.00000 -5.64675 19.28487 18.43799
342 7 15 0.00000 -6.00414 19.37554 16.63826
343 7 15 0.00000 -6.38853 19.48766 14.83244
344 7 15 0.00000 -6.76023 19.57785 13.01446
345 7 15 0.00000 -7.11348 19.63352 11.18812
346 7 15 0.00000 -7.44991 19.65353 9.35789
347 7 15 0.00000 -7.77258 19.63840 7.52859
348 7 15 0.00000 -8.08105 19.59071 5.70730
349 7 15 0.00000 -8.38261 19.51185 3.90289
350 7 15 0.00000 -8.67879 19.40234 2.12700
351 7 15 0.00000 -8.97156 19.26082 0.39240
352 7 15 0.00000 -9.25578 19.08471 -1.28362
353 7 15 0.00000 -9.54705 18.87513 -2.89438
354 7 15 0.00000 -9.85064 18.63856 -4.44996
355 7 15 0.00000 -10.16740 18.38819 -5.96247
356 7 15 0.00000 -10.44552 18.19241 -7.61629
357 7 16 0.00000 -10.78775 17.90125 -9.03056
358 7 15 0.50000 -2.96428 20.17573 22.20819
359 7 4 -0.70000 -1.94641 20.90707 22.68135
360 7 12 0.80000 -1.05993 21.46564 21.83422
361 7 1 -0.60000 -0.16176 22.24542 22.19646
362 7 15 0.00000 -1.20599 21.15414 20.44651
363 7 15 0.00000 -1.44092 20.72597 19.00850
364 7 15 0.00000 -1.66549 20.23862 17.58863
365 7 15 0.00000 -1.86325 19.75250 16.16359
366 7 15 0.00000 -2.06947 19.31218 14.72306
367 7 15 0.00000 -2.31712 18.93573 13.26951
368 7 15 0.00000 -2.60964 18.62272 11.80785
369 7 15 0.00000 -2.92506 18.37022 10.33814
370 7 15 0.00000 -3.23676 18.18390 8.85628
371 7 15 0.00000 -3.53346 18.07463 7.36377
372 7 15 0.00000 -3.83065 18.04449 5.86624
373 7 15 0.00000 -4.15902 18.08236 4.37386
374 7 15 0.00000 -4.53985 18.16273 2.89564
375 7 15 0.00000 -4.96853 18.25911 1.43052
376 7 15 0.00000 -5.42044 18.35822 -0.03026
377 7 15 0.00000 -5.77805 18.43587 -1.51282
378 7 16 0.00000 -6.30104 18.55371 -2.95616
379 8 16 0.40000 -16.07896 21.35486 32.47664
380 8 16 0.40000 -16.54090 19.26980 31.44409
381 8 16 0.40000 -17.22763 21.30314 30.39467
382 8 8 -0.50000 -16.16567 20.66696 31.17683
383 8 15 0.30000 -14.87727 20.70837 30.47912
384 8 15 0.40000 -13.62858 20.62476 29.57711
385 8 3 -0.80000 -12.85576 20.47139 28.49041
386 8 30 1.70000 -13.73381 20.81145 27.12083
387 8 2 -0.80000 -13.53829 22.28320 26.85401
388 8 2 -0.80000 -15.12924 20.29621 27.44607
389 8 3 -0.70000 -12.99472 19.90762 25.94749
390 8 15 0.40000 -13.64706 19.66991 24.77417
391 8 14 0.30000 -14.65304 19.26793 23.78204
392 8 4 -0.70000 -14.67273 19.60481 22.32923
393 8 12 0.70000 -14.49680 18.59192 21.34339
394 8 1 -0.70000 -13.98060 17.51142 21.61523
395 8 15 0.00000 -14.98733 18.81329 19.85970
396 8 15 0.00000 -15.49768 18.77651 18.09529
397 8 15 0.00000 -16.00441 18.70748 16.31772
398 8 15 0.00000 -16.51163 18.66503 14.53102
399 8 15 0.00000 -17.01437 18.66203 12.73919
400 8 15 0.00000 -17.50905 18.69777 10.94550
401 8 15 0.00000 -17.99195 18.76934 9.15319
402 8 15 0.00000 -18.46214 18.87401 7.36924
403 8 15 0.00000 -18.91189 19.00507 5.59904
404 8 15 0.00000 -19.33587 19.15961 3.85265
405 8 15 0.00000 -19.72689 19.33574 2.14074
406 8 15 0.00000 -20.08021 19.53619 0.48067
407 8 15 0.00000 -20.38298 19.74982 -1.12744
408 8 15 0.00000 -20.63935 19.96976 -2.69392
409 8 15 0.00000 -20.86138 20.18676 -4.22830
410 8 15 0.00000 -21.19848 20.40331 -5.86850
411 8 16 0.00000 -21.33977 20.62369 -7.32916
412 8 15 0.50000 -15.91599 19.19458 24.46361
413 8 4 -0.70000 -16.87922 19.16116 25.39413
414 8 12 0.80000 -18.16502 19.36786 25.04852
415 8 1 -0.60000 -19.11710 19.23990 25.83792
416 8 15 0.00000 -18.42078 19.71801 23.68613
417 8 15 0.00000 -18.56436 20.11400 22.22704
418 8 15 0.00000 -18.67265 20.56038 20.78032
419 8 15 0.00000 -18.80244 21.02256 19.33959
420 8 15 0.00000 -18.95979 21.44566 17.88777
421 8 15 0.00000 -19.13152 21.79537 16.41670
422 8 15 0.00000 -19.31306 22.06928 14.92942
423 8 15 0.00000 -19.51796 22.28284 13.43419
424 8 15 0.00000 -19.76982 22.44808 11.93851
425 8 15 0.00000 -20.08246 22.56296 10.44968
426 8 15 0.00000 -20.44407 22.61580 8.96702
427 8 15 0.00000 -20.82257 22.59560 7.48622
428 8 15 0.00000 -21.18430 22.50849 6.00359
429 8 15 0.00000 -21.51705 22.37831 4.51632
430 8 15 0.00000 -21.83349 22.23149 3.02427
431 8 15 0.00000 -22.21153 22.16103 1.54643
432 8 16 0.00000 -22.48268 21.95447 0.04494
433 9 16 0.40000 -4.91049 5.79883 31.11268
434 9 16 0.40000 -4.42619 7.75521 29.86168
435 9 16 0.40000 -4.79951 5.67925 28.73990
436 9 8 -0.50000 -5.22082 6.51714 29.86450
437 9 15 0.30000 -6.64770 6.84495 29.79366
438 9 15 0.40000 -8.09649 7.29537 29.51441
439 9 3 -0.80000 -9.19502 7.70321 28.85975
440 9 30 1.70000 -9.11092 7.23231 27.26804
441 9 2 -0.80000 -9.76864 5.87659 27.19820
442 9 2 -0.80000 -7.63157 7.35664 26.92958
443 9 3 -0.70000 -10.02713 8.36124 26.47686
444 9 15 0.40000 -9.90734 8.49395 25.12527
445 9 14 0.30000 -9.36154 8.68492 23.77489
446 9 4 -0.70000 -10.05586 8.43977 22.47783
447 9 12 0.70000 -10.37591 9.52010 21.60649
448 9 1 -0.70000 -10.43167 10.67838 22.01039
449 9 15 0.00000 -10.64645 9.26882 20.07202
450 9 15 0.00000 -10.95526 9.27820 18.26108
451 9 15 0.00000 -11.26469 9.32040 16.43796
452 9 15 0.00000 -11.58437 9.33734 14.60797
453 9 15 0.00000 -11.92015 9.31765 12.77759
454 9 15 0.00000 -12.27354 9.26269 10.95127
455 9 15 0.00000 -12.64565 9.17605 9.13339
456 9 15 0.00000 -13.03354 9.06019 7.33044
457 9 15 0.00000 -13.43992 8.92323 5.55022
458 9 15 0.00000 -13.86430 8.76875 3.80393
459 9 15 0.00000 -14.30787 8.59977 2.10415
460 9 15 0.00000 -14.76791 8.41383 0.46872
461 9 15 0.00000 -15.25270 8.22495 -1.09737
462 9 15 0.00000 -15.76133 8.03932 -2.60560
463 9 15 0.00000 -16.28514 7.86335 -4.07032
464 9 15 0.00000 -16.75476 7.66481 -5.67993
465 9 16 0.00000 -17.31758 7.50176 -7.04326
466 9 15 0.50000 -7.95555 8.39534 23.84028
467 9 4 -0.70000 -6.71200 8.12868 24.26134
468 9 12 0.80000 -5.79979 7.62310 23.40827
469 9 1 -0.60000 -4.60271 7.45881 23.70150
470 9 15 0.00000 -6.25407 7.29994 22.09172
471 9 15 0.00000 -6.85880 6.96665 20.73908
472 9 15 0.00000 -7.50154 6.59295 19.41575
473 9 15 0.00000 -8.12709 6.19819 18.08948
474 9 15 0.00000 -8.72363 5.83480 16.73906
475 9 15 0.00000 -9.29739 5.53976 15.36080
476 9 15 0.00000 -9.85042 5.31637 13.95928
477 9 15 0.00000 -10.37132 5.14578 12.53701
478 9 15 0.00000 -10.83947 5.00995 11.09127
479 9 15 0.00000 -11.23927 4.90692 9.62256
480 9 15 0.00000 -11.57825 4.85101 8.13468
481 9 15 0.00000 -11.88327 4.86122 6.63691
482 9 15 0.00000 -12.18662 4.94038 5.14080
483 9 15 0.00000 -12.50614 5.06876 3.65048
484 9 15 0.00000 -12.83763 5.21763 2.16189
485 9 15 0.00000 -13.12902 5.27632 0.66405
486 9 16 0.00000 -13.48863 5.49490 -0.81701
487 10 16 0.40000 -19.81792 -3.65732 32.13614
488 10 16 0.40000 -21.31468 -5.31768 31.34250
489 10 16 0.40000 -20.89863 -3.35968 30.03848
490 10 8 -0.50000 -20.28661 -4.35197 30.92452
491 10 15 0.30000 -19.18187 -5.05807 30.26921
492 10 15 0.40000 -18.18182 -5.87440 29.42460
493 10 3 -0.80000 -17.63211 -6.52853 28.38941
494 10 30 1.70000 -18.25683 -5.95172 26.96134
495 10 2 -0.80000 -17.34490 -4.83054 26.52912
496 10 2 -0.80000 -19.70798 -5.63816 27.29944
497 10 3 -0.70000 -18.12274 -7.23759 25.92768
498 10 15 0.40000 -18.84275 -7.24480 24.76998
499 10 14 0.30000 -19.94455 -7.18959 23.79997
500 10 4 -0.70000 -19.83654 -7.06433 22.31768
501 10 12 0.70000 -20.23569 -8.13284 21.46461
502 10 1 -0.70000 -20.33620 -9.28443 21.87883
503 10 15 0.00000 -20.59209 -7.86873 19.94996
504 10 15 0.00000 -21.10669 -7.84735 18.18652
505 10 15 0.00000 -21.63511 -7.85683 16.41396
506 10 15 0.00000 -22.15066 -7.84451 14.62919
507 10 15 0.00000 -22.64235 -7.80152 12.83480
508 10 15 0.00000 -23.10737 -7.72988 11.03426
509 10 15 0.00000 -23.54389 -7.63361 9.23125
510 10 15 0.00000 -23.95230 -7.51469 7.43303
511 10 15 0.00000 -24.32921 -7.38213 5.64602
512 10 15 0.00000 -24.67122 -7.23996 3.88071
513 10 15 0.00000 -24.97275 -7.09220 2.14813
514 10 15 0.00000 -25.22778 -6.93689 0.46537
515 10 15 0.00000 -25.43096 -6.79010 -1.16573
516 10 15 0.00000 -25.58972 -6.65674 -2.75474
517 10 15 0.00000 -25.71944 -6.53966 -4.31043
518 10 15 0.00000 -25.95166 -6.37660 -5.97485
519 10 16 0.00000 -26.00792 -6.28924 -7.45514
520 10 15 0.50000 -21.04430 -6.52558 24.44386
521 10 4 -0.70000 -21.85814 -5.95150 25.33990
522 10 12 0.80000 -22.86780 -5.15874 24.93053
523 10 1 -0.60000 -23.72503 -4.68749 25.69804
524 10 15 0.00000 -22.95278 -4.89077 23.52872
525 10 15 0.00000 -22.92114 -4.65257 22.02917
526 10 15 0.00000 -22.83302 -4.38807 20.53710
527 10 15 0.00000 -22.75508 -4.09843 19.04842
528 10 15 0.00000 -22.72116 -3.82926 17.55244
529 10 15 0.00000 -22.73776 -3.61747 16.04556
530 10 15 0.00000 -22.80206 -3.46710 14.53121
531 10 15 0.00000 -22.91756 -3.35709 13.01534
532 10 15 0.00000 -23.09811 -3.26423 11.50320
533 10 15 0.00000 -23.35639 -3.18235 10.00182
534 10 15 0.00000 -23.68824 -3.12750 8.51229
535 10 15 0.00000 -24.07190 -3.12596 7.03268
536 10 15 0.00000 -24.47544 -3.19016 5.55970
537 10 15 0.00000 -24.87627 -3.30639 4.08815
538 10 15 0.00000 -25.27177 -3.44570 2.61434
539 10 15 0.00000 -25.68063 -3.48682 1.14362
540 10 16 0.00000 -26.06810 -3.70124 -0.33101
541 11 16 0.40000 11.00767 -4.34585 29.94064
542 11 16 0.40000 8.81361 -3.70330 29.30798
543 11 16 0.40000 10.57450 -3.69826 27.69349
544 11 8 -0.50000 10.02076 -4.40764 28.84866
545 11 15 0.30000 9.68911 -5.79821 28.52497
546 11 15 0.40000 9.19001 -7.17016 28.02646
547 11 3 -0.80000 8.64453 -8.11466 27.24412
548 11 30 1.70000 8.73401 -7.64897 25.65116
549 11 2 -0.80000 10.03843 -8.19723 25.12833
550 11 2 -0.80000 8.53092 -6.14075 25.70113
551 11 3 -0.70000 7.45496 -8.42583 24.94375
552 11 15 0.40000 7.01272 -8.01317 23.72192
553 11 14 0.30000 6.51297 -7.18959 22.61292
554 11 4 -0.70000 6.45302 -7.56000 21.16941
555 11 12 0.70000 5.20117 -7.73616 20.51319
556 11 1 -0.70000 4.16798 -7.94599 21.14274
557 11 15 0.00000 5.09115 -7.64064 18.94166
558 11 15 0.00000 4.66366 -7.53486 17.15811
559 11 15 0.00000 4.20142 -7.42878 15.37027
560 11 15 0.00000 3.76219 -7.32971 13.56789
561 11 15 0.00000 3.35855 -7.24417 11.75317
562 11 15 0.00000 2.99020 -7.17470 9.93031
563 11 15 0.00000 2.65467 -7.12355 8.10398
564 11 15 0.00000 2.35107 -7.08948 6.28157
565 11 15 0.00000 2.07330 -7.07732 4.47167
566 11 15 0.00000 1.82048 -7.08931 2.68577
567 11 15 0.00000 1.59258 -7.12960 0.93619
568 11 15 0.00000 1.39611 -7.19943 -0.76009
569 11 15 0.00000 1.21861 -7.30873 -2.39712
570 11 15 0.00000 1.05142 -7.45441 -3.98418
571 11 15 0.00000 0.88492 -7.62516 -5.53138
572 11 15 0.00000 0.70671 -7.70939 -7.20827
573 11 16 0.00000 0.55122 -7.94159 -8.66565
574 11 15 0.50000 6.80621 -5.82025 22.93521
575 11 4 -0.70000 7.15990 -4.69011 23.56171
576 11 12 0.80000 7.45196 -3.58277 22.85181
577 11 1 -0.60000 7.67659 -2.47485 23.36955
578 11 15 0.00000 7.46278 -3.71092 21.42788
579 11 15 0.00000 7.47548 -3.97675 19.93271
580 11 15 0.00000 7.53439 -4.28389 18.44739
581 11 15 0.00000 7.61305 -4.57247 16.95853
582 11 15 0.00000 7.65553 -4.82916 15.46058
583 11 15 0.00000 7.62501 -5.06126 13.95691
584 11 15 0.00000 7.51936 -5.27198 12.45211
585 11 15 0.00000 7.35746 -5.44973 10.94695
586 11 15 0.00000 7.15617 -5.57286 9.43960
587 11 15 0.00000 6.91747 -5.62615 7.93370
588 11 15 0.00000 6.62835 -5.61862 6.43430
589 11 15 0.00000 6.27253 -5.57954 4.94826
590 11 15 0.00000 5.85000 -5.54306 3.47967
591 11 15 0.00000 5.38098 -5.52637 2.02386
592 11 15 0.00000 4.89245 -5.52286 0.57154
593 11 15 0.00000 4.48942 -5.47321 -0.90053
594 11 16 0.00000 3.93489 -5.50265 -2.33660
595 12 16 0.40000 -1.66317 -16.37977 29.45759
596 12 16 0.40000 -0.23099 -15.19006 27.98775
597 12 16 0.40000 -1.72712 -16.84080 27.12520
598 12 8 -0.50000 -1.57476 -15.77464 28.11736
599 12 15 0.30000 -2.58761 -14.72826 27.95093
600 12 15 0.40000 -3.55928 -13.59509 27.56153
601 12 3 -0.80000 -4.27651 -12.73738 26.81884
602 12 30 1.70000 -4.52623 -13.37446 25.30419
603 12 2 -0.80000 -5.82328 -14.14067 25.38196
604 12 2 -0.80000 -3.23659 -14.12843 25.00953
605 12 3 -0.70000 -4.69999 -12.03912 24.34161
606 12 15 0.40000 -4.57877 -12.16708 22.98969
607 12 14 0.30000 -4.07004 -12.48109 21.64786
608 12 4 -0.70000 -4.83375 -12.46627 20.36682
609 12 12 0.70000 -4.53993 -11.50912 19.35376
610 12 1 -0.70000 -3.93395 -10.47105 19.60488
611 12 15 0.00000 -4.96254 -11.76259 17.85440
612 12 15 0.00000 -5.28431 -11.81495 16.04645
613 12 15 0.00000 -5.58900 -11.84142 14.22223
614 12 15 0.00000 -5.91639 -11.88398 12.39402
615 12 15 0.00000 -6.27739 -11.94797 10.56947
616 12 15 0.00000 -6.67232 -12.03087 8.75274
617 12 15 0.00000 -7.09996 -12.12857 6.94768
618 12 15 0.00000 -7.55627 -12.23979 5.16052
619 12 15 0.00000 -8.03874 -12.35539 3.39788
620 12 15 0.00000 -8.54457 -12.47124 1.67039
621 12 15 0.00000 -9.07260 -12.58259 -0.00990
622 12 15 0.00000 -9.62125 -12.69072 -1.62487
623 12 15 0.00000 -10.18949 -12.77886 -3.17169
624 12 15 0.00000 -10.77364 -12.84385 -4.66249
625 12 15 0.00000 -11.36346 -12.88700 -6.11196
626 12 15 0.00000 -11.92604 -12.99698 -7.70011
627 12 16 0.00000 -12.53743 -12.99514 -9.05223
628 12 15 0.50000 -3.05379 -13.48511 21.80324
629 12 4 -0.70000 -2.14687 -14.33571 22.30201
630 12 12 0.80000 -1.69652 -15.36308 21.55557
631 12 1 -0.60000 -0.77694 -16.11985 21.91287
632 12 15 0.00000 -2.30363 -15.54715 20.27430
633 12 15 0.00000 -3.04319 -15.66142 18.95279
634 12 15 0.00000 -3.83559 -15.78443 17.66401
635 12 15 0.00000 -4.62534 -15.93464 16.37565
636 12 15 0.00000 -5.37455 -16.07797 15.06048
637 12 15 0.00000 -6.06823 -16.18096 13.70991
638 12 15 0.00000 -6.70610 -16.23916 12.32798
639 12 15 0.00000 -7.28892 -16.27408 10.91999
640 12 15 0.00000 -7.80951 -16.31230 9.48636
641 12 15 0.00000 -8.25591 -16.36395 8.02841
642 12 15 0.00000 -8.62639 -16.41259 6.54780
643 12 15 0.00000 -8.93255 -16.42658 5.05029
644 12 15 0.00000 -9.19933 -16.38436 3.54574
645 12 15 0.00000 -9.45232 -16.29189 2.04006
646 12 15 0.00000 -9.70394 -16.17570 0.53304
647 12 15 0.00000 -9.97207 -16.15719 -0.97017
648 12 16 0.00000 -10.20854 -15.96703 -2.47967
649 13 16 0.40000 -14.86025 -14.58240 29.97984
650 13 16 0.40000 -14.88897 -12.49830 28.84727
651 13 16 0.40000 -14.74030 -14.53349 27.60498
652 13 8 -0.50000 -15.34924 -13.89361 28.77290
653 13 15 0.30000 -16.81326 -13.92894 28.71064
654 13 15 0.40000 -18.33063 -13.83922 28.44722